LAMMPS data file via write_data, version 2 Aug 2023, timestep = 500000, units = metal

188 atoms
4 atom types

-0.1912588748158779 12.288330474815524 xlo xhi
-0.1912588748158779 12.288330474815524 ylo yhi
-0.1912588748158779 12.288330474815524 zlo zhi

Masses

1 15.999
2 1.00794
3 22.9898
4 35.45

Atoms # atomic

8 1 2.094936807917634 1.2777914409097582 3.479748236057101 1 -1 0
77 2 1.2714846926242194 1.3574510292028126 3.966661891602172 1 -1 0
78 2 2.360494393026579 2.181741833806211 3.510392380215603 1 -1 0
187 3 2.858101022572609 0.7755015625559308 1.0391766082087857 1 1 0
22 1 0.7056801621620785 0.2074303444113979 0.5853475468114433 1 0 1
105 2 0.5203018164105866 -0.12272821454548057 1.4984270162222795 1 0 1
6 1 3.03808925233532 3.341612440368904 0.7032011731493303 1 1 1
182 2 5.996139552335533 1.9474411991425193 2.1252699958046524 0 1 1
60 1 6.0077962528682765 1.099213812238431 1.5552038452709753 0 1 1
103 2 7.727582257921749 3.4327071529732325 3.190422467776868 0 0 0
181 2 6.395218673070571 1.4847943125848078 0.7031467356446799 0 1 1
21 1 6.845245514338389 3.0305198083501956 3.362873672591989 0 0 0
98 2 7.972685975986547 0.37100487516230773 2.4588754173760816 -1 1 0
15 1 10.798418466299708 1.8841827859109963 0.9640571091977941 0 0 0
91 2 10.17903444535348 1.7489874670823187 1.721136355699517 0 0 0
92 2 11.484714758812313 1.1725979746403363 1.1204955096892997 0 0 0
18 1 8.795185065461391 -0.15822517994630406 2.6402643207060135 -1 1 0
140 2 11.214475109578434 3.471452638892172 1.1160407568313497 0 0 1
144 2 9.753477062976415 3.962794874784141 3.534387831071533 1 0 0
142 2 11.899494486094408 0.20209505550775164 3.748399469230801 -1 0 0
160 2 2.5256303863955454 7.467473119430936 0.9199008155870718 1 -2 0
50 1 3.658604258253257 6.205656462111732 1.512342782611425 1 0 0
72 2 2.40536084294224 6.593896486233652 3.6791666308222077 0 0 0
73 2 2.774901526190874 4.108165997508166 1.1385330642188636 1 1 1
161 2 4.066018727177896 5.780951399411573 2.2914781174712364 1 0 0
162 2 4.095382588631069 5.7635891899321 0.7415103749956581 1 0 0
67 2 7.229035488697502 6.170760284387789 1.2143077378801181 0 0 0
148 2 5.680576363735923 4.315942085029629 3.5985356452562596 0 1 0
90 2 6.7852387859635 7.771245611500722 3.136299626273135 0 0 -1
89 2 6.148611648236022 8.074867379188706 1.8701930264511395 0 0 -1
14 1 6.991440746429182 7.798649349286373 2.219049205516272 0 0 -1
3 1 7.63904967815533 5.695740020471812 0.5187094900457205 0 0 0
43 1 4.901426415741893 4.841065762679951 3.829185559364765 0 1 0
41 1 9.229176247249956 4.020442644219496 2.728180160426943 1 0 0
139 2 11.536660418222402 5.084544971103196 1.3121045258153377 0 0 0
39 1 11.585433589444985 4.303473649180044 0.7743744064454874 0 0 0
107 2 10.091056656325948 7.089033282204298 1.0442061444125277 0 0 1
23 1 10.514188993250633 6.687326564958523 1.8177260033417317 0 0 1
108 2 10.222472474900712 7.1962143217130485 2.600787849530453 0 0 1
143 2 9.179659722659784 4.96889135604127 2.540277374639251 1 0 0
68 2 8.266207117495282 6.396514923722412 0.15307802366382794 0 0 0
71 2 2.0212333018203616 8.20838457939541 3.748689779939273 0 0 0
106 2 0.1214654313645036 12.243196928925459 0.0006526927510506209 1 -1 1
49 1 2.2386873714830076 8.302337444985794 0.5139019873037577 1 -2 0
159 2 2.0675962971246524 8.95213814809166 1.1708737494941694 1 -2 0
165 2 0.8049349118945163 10.054396906100589 2.8632165454926626 1 0 1
166 2 2.213899826271416 10.259250887366333 3.235351405469116 1 0 1
52 1 1.6155738250049638 9.587874568459162 2.715473228839677 1 0 1
174 2 5.132593048459031 12.096009224756251 2.0379291073992594 1 0 0
173 2 4.2427504983749245 11.407550921952874 2.9933855985525666 1 0 0
13 1 5.199409675271786 9.267286733976276 0.7368154792496836 0 -1 1
56 1 4.41313508911331 11.449981443932963 2.0215050930258545 1 0 0
88 2 5.028338783302362 10.13039959903173 1.1548765542785178 0 -1 1
87 2 4.385934053216522 8.843515810778989 0.81939378237775 0 -1 1
100 2 7.7754543794997675 9.495744378604783 1.5418055441438967 0 -1 0
97 2 8.64392827922635 11.421543338911262 2.2305683042033912 -1 0 0
40 1 12.04266322038059 12.040456899318352 3.018417391244975 -1 -1 0
141 2 11.595653645441539 11.202579260720174 3.253048197978262 -1 -1 0
19 1 8.140468599942391 10.321719635220248 1.2012534201095277 0 -1 0
99 2 8.905342003039367 9.974781383750257 0.710394418751745 0 -1 0
53 1 10.956989988411584 10.045565925539755 0.6601736959040636 0 1 0
167 2 10.888774447076775 9.50182851840596 1.4949221390048586 0 0 0
69 2 11.586110310409438 8.509493835371336 3.942945307159146 -1 0 0
4 1 11.13343857671893 9.273494048447642 3.6026755897933884 -1 0 0
168 2 10.935845412646058 9.425025446994276 -0.06833854283424486 0 1 0
131 2 1.9100683739124817 2.176152009416656 6.866066249195242 0 0 -1
35 1 0.9849597984363427 2.0274538939798337 7.1959422250407625 0 0 -1
75 2 0.10644369929799957 1.3267496962782963 5.72042949222092 0 0 0
132 2 0.7883753507272496 2.8786282705123645 7.675767327478149 0 0 -1
158 2 0.5986026982458401 3.8379683917189116 4.1493600902358 -1 1 0
104 2 6.915725874284886 2.793973843552974 4.258337780764329 0 0 0
81 2 7.029439016180643 2.0281060801530804 6.635422615614939 0 0 0
10 1 6.388247973596021 2.38319213353111 5.899236553675634 0 0 0
82 2 5.802167434844794 2.935654813230766 6.427809185061989 0 0 0
117 2 5.686173518526757 -0.13558339315902568 7.988444828694282 -1 1 0
34 1 8.17680229734809 1.3338299517502306 7.5422623198234024 0 0 0
63 2 10.10831015467671 0.5762177255975959 5.273991911560371 -1 -1 1
7 1 11.909243106592136 1.3529984593985513 5.0114244756076705 -1 0 0
76 2 11.628752870761925 2.268133219379752 4.898049995540635 -1 0 0
129 2 8.393019392278974 0.7724009674328958 6.7201611319766625 0 1 0
64 2 9.087535941562683 -0.04699521248886593 4.39933277866364 -1 -1 1
130 2 8.891660070712327 2.0527083066464993 7.544258694040598 0 0 0
1 1 9.325995242989066 0.08427105106241833 5.333838920050113 -1 -1 1
157 2 1.8722969681994281 4.142368643233368 4.914656489332479 -1 1 0
188 4 3.4376220915767024 4.252773668552177 6.46738208227544 0 -1 0
48 1 1.4818995792038787 4.086195796728129 4.0693450053105895 -1 1 0
5 1 2.1662533377235413 7.3629101927547485 4.286794667205635 0 0 0
145 2 0.49504014819758435 7.017925193220986 4.710889877803778 1 0 0
66 2 3.16736646334423 7.029034139859229 5.813939160106689 0 0 0
2 1 3.555345149365423 7.401076802322099 6.655395977856483 0 0 0
147 2 4.48489711927568 4.456933944655793 4.7100176374348495 0 1 0
32 1 6.39620541269495 7.080417271942968 4.67388438941309 0 0 -1
126 2 5.978187739351933 6.201198370641302 4.538008858373305 -1 0 -1
125 2 6.00806185440089 7.495296822830553 5.444878741027845 0 0 -1
186 2 7.301535146550132 6.134937389122137 7.9411034971082195 -1 0 1
47 1 6.208680421872938 8.014739403748784 7.887237668865659 1 1 -1
155 2 5.294134690489896 7.789624901462005 7.700319217167482 1 1 -1
25 1 9.936810320546448 4.013545355737831 7.503024631557237 0 1 0
110 2 10.724486920184788 4.33910718638492 5.989957881659358 -1 0 1
24 1 10.973358148228174 4.244443808333995 4.9959668880976755 -1 0 1
112 2 9.230734259038249 4.681895866507455 7.78232427701279 0 1 1
146 2 11.87417721521442 7.189173944828966 5.8089879736373 0 -1 0
109 2 11.500518319243504 5.060308440888381 4.832977720610623 -1 0 1
42 1 11.960760422629313 7.034521102557328 4.85259015452 0 -1 0
29 1 12.037052951888516 6.59370532254652 7.739226724547512 0 0 0
137 2 2.7290754003049758 12.189454493276028 4.302382640874656 0 0 0
38 1 3.0891554472326788 11.289710541297499 4.3504915417003085 0 0 0
138 2 2.9612868578787506 11.07693360837761 5.339907266504475 0 0 0
86 2 2.3453663104079343 11.587697224665051 7.343990719811838 0 0 0
65 2 3.5419882352618313 8.383332431215136 6.378956632886299 0 0 0
12 1 3.045892865374674 11.069646741998033 6.932663426741006 0 0 0
85 2 3.800973037131459 11.053411839093805 7.565720420174557 0 0 0
156 2 6.4813961998894065 8.655495913226522 7.200989404136429 1 1 -1
44 1 6.444463296093226 9.815003535286523 6.039163006398455 -1 0 0
150 2 6.150175726456154 10.450756793006727 6.709029830588047 -1 0 0
149 2 7.4006346091381605 10.146275571885777 5.87819740072381 0 0 0
70 2 10.375902573354763 9.195341012387484 4.22414144091415 -1 0 0
84 2 9.410185357457912 10.918842657321363 5.84192415826249 0 -1 1
11 1 9.076728486271563 9.976893451212861 5.957393782313394 0 -1 1
83 2 9.449535780566498 9.635689488260551 6.81434639823079 0 -1 1
96 2 3.1053797187640106 0.3024816337112034 11.128756300630046 1 0 0
74 2 3.0953926353439956 3.5654978591129187 12.227132286121465 1 1 0
17 1 3.9091229307337185 0.46630715856669724 11.615567426014216 1 0 0
151 2 1.1186734383129222 -0.13898663280180143 9.5473245087274 0 0 0
30 1 7.8765846677193885 2.2923663800948106 11.929237119361462 0 1 0
122 2 7.875579332353917 1.4700579912130591 11.375203870282535 0 1 0
101 2 7.202832001920656 3.420354990497168 10.491888930477906 0 0 0
102 2 5.693048696371564 3.7890394290124902 10.088339098409696 0 0 0
20 1 6.567310116065114 3.8831726190279117 9.870650399998956 0 0 0
113 2 10.321983711257351 0.5299177068621351 12.127582010091517 0 1 0
111 2 10.497401960740728 3.9144985937121897 8.279542298511842 0 0 1
121 2 8.778964028562891 2.5264618403143375 11.983611149256477 0 1 0
128 2 12.199935607846365 0.6635159533469879 8.314155367789844 -1 1 0
127 2 11.179599648577394 -0.017732561921849965 9.407750608457125 0 1 0
26 1 10.702669959589782 -0.07255802183685947 11.468090832609997 0 1 0
33 1 11.933832335229047 -0.17242531916231182 8.79601848667157 -1 1 0
154 2 8.48210374223683 -0.1691453119064174 9.107691286809574 0 1 -1
163 2 2.0642872869342153 7.658668039232195 8.183695037734905 1 0 0
172 2 0.8380428909022481 7.531940570633435 12.197707757064679 0 0 -1
120 2 0.2310757711112743 6.958892508052035 8.36441088772397 1 0 0
51 1 1.6621962737226121 7.797812811618868 9.026153825534628 1 0 0
134 2 0.9858287422577399 5.521514156844876 11.213694905895208 0 0 -1
59 1 3.964692997662646 5.45852138768073 9.2164100249232 1 0 0
179 2 3.2569830013330026 6.020538378614508 9.065289628912673 1 0 0
36 1 0.9803935716958094 4.573677235203617 11.065557198407829 0 0 -1
55 1 0.14576137210912782 7.167309688312311 11.670747849439433 0 0 -1
133 2 0.5060280715097362 4.422059624282928 11.869460213149193 0 0 -1
171 2 0.3441516642781137 7.582232030659895 10.825107292080482 0 0 -1
37 1 -0.010886562467307431 3.973076360334362 8.791136025376792 0 0 -1
136 2 0.3554876757193265 4.185164993184428 9.677826704336029 0 0 0
135 2 -0.11941388433681 4.8565196666034876 8.422477039202256 0 0 -1
180 2 4.166886504416188 5.0943074201491 8.361357279445317 1 0 0
116 2 6.006848371089764 5.5592452895919315 12.004447900496034 0 0 -1
62 1 7.94831942137168 5.575403149131195 8.414598710328416 -1 0 1
27 1 5.0653453355359614 5.796557820545443 11.903971856819302 0 0 -1
185 2 7.344761713662704 4.967115537257275 8.877440671288888 -1 0 1
115 2 4.864821543458263 5.672140040641297 10.9090603094133 0 0 -1
183 2 6.7211362997620006 7.997950846274438 9.611609940343024 -1 0 0
184 2 6.14607159378083 7.457718131387963 10.939748033773075 -1 0 0
61 1 6.842928800461016 8.019342643859998 10.618627343590871 -1 0 -1
170 2 10.442640368682055 4.477442883600584 12.023280550262667 -1 1 0
54 1 9.691314908589176 4.382630792964894 11.388908570922379 -1 1 0
169 2 9.010068989405793 4.7241436030381925 11.930672223635383 -1 1 0
93 2 9.31506983977072 6.412121572237724 9.368467077241718 0 1 0
119 2 11.18220333049313 6.603422535921826 8.167016237552195 0 0 0
16 1 10.192264344863094 6.3777242324968375 9.718689390565208 0 1 0
94 2 10.108571840110507 5.542214516889034 10.317304520280203 0 1 0
80 2 9.629745643202382 7.236184480953015 11.314766654162897 0 0 -1
79 2 8.25022355659418 7.901669843066507 11.455081821222437 0 0 -1
9 1 9.072893169634611 7.687232969016279 11.947604943511827 0 0 -1
164 2 2.302657078363807 8.354149040583199 9.59598340544153 1 0 0
123 2 2.7742679528607996 9.167535286366999 11.49996612574911 0 -1 0
31 1 2.886935051170517 9.646067592065185 10.694243611783905 0 -1 0
152 2 2.308426760287143 11.32173785472747 9.875528125129811 0 -1 0
45 1 2.118293520080245 12.224835854453689 9.58716772684605 0 -1 0
124 2 3.7875378340096963 9.886321483848253 10.639500101727968 0 -1 0
178 2 5.53203335786839 10.255822118334784 11.728744650919543 0 0 0
28 1 5.545296874948059 11.389513573271286 8.14383945256412 -1 0 0
95 2 4.531241587935833 12.250831192306675 11.346667497711309 0 -1 0
118 2 5.889878713645467 11.21896382459634 9.044931397106643 -1 0 0
58 1 5.654524926604461 10.747170590859042 10.84268907662931 0 0 0
177 2 6.580801745681501 11.012114141665789 10.824754878716512 0 0 0
46 1 8.218951945147834 12.032842758731237 9.98062747991865 0 0 -1
153 2 9.005209818709465 11.711463225710837 10.457376931890451 0 0 -1
175 2 10.523083749359897 8.343151341049936 8.938863996294874 -1 0 0
57 1 10.382393761409448 9.172952948316201 8.492013101371821 -1 0 0
176 2 11.326224700845932 9.392410075360576 8.259467259496866 -1 0 0
114 2 10.64797950014274 11.576423159176457 11.973229390187083 0 0 0

Velocities

8 -8.137023986802715 1.3231905072778367 1.3013731523406085
77 -16.56604965890873 25.36749572154337 6.793061053080138
78 -11.50741977398631 9.466782576237073 -28.668526714541958
187 2.6923283683963684 1.7422801335060512 1.8478378158793136
22 -3.435492478613066 -3.1716708257847017 -5.062796934511849
105 29.448664244017035 -22.174800355116734 11.320000837859942
6 -2.50820300782269 -2.098242269246226 9.690190048321163
182 -9.636232970584006 14.095964249737154 -12.780675973076567
60 -1.3733391307176614 -5.7823310517643245 7.834731019978627
103 15.460021395918705 -10.679899051536722 7.5238240543245585
181 0.49708018274783433 -29.533494167681756 5.195974741250779
21 -4.40650421175363 2.6594509685528274 4.787848560766077
98 -9.70910097736298 9.736195655760914 -12.46748353287949
15 -3.0190796648886122 -3.616089933351875 -0.5492467033326172
91 -3.373139092037921 -12.378282180995013 -13.634098719333828
92 -12.403904026559049 0.410783049240201 16.444343992727386
18 -1.0145460205520074 -6.698278726689179 3.4415150240448757
140 -22.420156596086077 12.675902701388223 -38.17487339304352
144 9.242654741547799 8.236422246411122 4.246326745956709
142 8.335193189929445 2.3850369806713183 -30.240025575168268
160 -6.012317539893262 -28.12229447105219 21.54079876335303
50 7.586247833330195 -8.816878788134254 3.7127573249703576
72 7.296002560946934 2.70266357784352 -3.797348432962685
73 -7.104314904040768 10.711321444036468 19.05728574350942
161 11.309831040823736 7.270810544821052 -3.3490700875649297
162 7.5926458979278815 -1.0503199551737739 -14.769759532252273
67 18.623198398636976 -2.1202804627158285 -21.462087572130386
148 0.09174887636796016 -3.6916128409473186 -29.609067231549474
90 27.8867444439835 11.465536020604214 13.109341402835668
89 -21.02885612247422 36.671758060978796 12.369983333952343
14 -2.9663984242893395 3.4913073278548663 -1.7080629073433615
3 2.6886250277395343 -3.816390639226464 9.234212082260129
43 6.150070123925903 1.0036872182793801 3.3816591033155823
41 0.5763710290962837 2.3949759483738022 6.537856268947067
139 -38.77028337596906 -8.238206016164227 -4.888519180231356
39 0.7217215105202589 -4.805591442391285 -7.314153261577326
107 11.932372935108221 -6.2427870771491705 -3.3571650018242454
23 -10.00728584947013 -0.9178333151642528 4.612563770421289
108 -0.3334656048309579 18.550543800532093 -0.6452147758411646
143 -2.8502471453593907 -15.428127421282133 12.904656047191779
68 3.2305222069160484 -14.163329930500565 1.150097925758928
71 -13.905935164708112 28.274622627187764 19.495940005968098
106 10.650609586311862 -25.1343935984843 10.256037583656193
49 -1.958042738304224 -3.4140231468178137 -7.303731259918883
159 34.99492969950356 7.162389349484855 -24.103826175766336
165 -24.03325715645719 16.580629406031637 0.5488292325294725
166 15.905272771670147 -6.10608007360447 -18.911983251073764
52 -4.609105657214823 0.37036551886534536 1.6410414046625625
174 -7.765509274353251 16.353569363336103 -20.25262402262244
173 0.02560930523965213 13.99678096602016 -24.498595193661313
13 -4.483846819507451 -0.8704981758405564 -6.594331030030489
56 1.232713200080596 -0.5824709546220113 -0.8386932481775877
88 22.802892857508827 8.78689058104084 -5.149223386774016
87 6.911410913305561 11.375838907205408 -7.333446765236418
100 -16.202112935585124 -25.035916922529616 -7.28597094223669
97 26.821443316980602 -5.4344443910200795 8.539047189526284
40 1.1715835304882196 -1.8640982097662417 -2.5934001538994784
141 6.698981032272256 11.049629208312618 -1.3496475005255824
19 7.26259907380613 -2.624276264982387 2.2060757457438696
99 -26.74970042073647 -24.886772383642835 5.529398899310336
53 -3.000696623883205 -5.482139893435229 0.8984256709485492
167 11.672009755488354 2.7649232427942128 38.35642561564997
69 5.900563476456795 8.910502481399632 -22.94439648695817
4 -2.9579263471646042 3.8474706516331016 -0.7959953705403724
168 -1.7850645451356182 25.651683969714462 2.18821957958367
131 13.933843686325902 -12.795591137459606 24.89161689008654
35 5.30914911429227 -4.969999770299734 -3.9155900095336222
75 -13.231204718882848 -3.398645074124145 -23.8709888683859
132 10.56043976062687 27.968800846572254 31.692518072218018
158 22.875420569970025 -20.267145169670172 -9.625548630960143
104 -24.597942026212614 -16.18707498865719 -7.832521915306665
81 7.675912805656639 5.6882275410662695 15.58345745990183
10 0.3817363532037536 3.3692344137518417 0.949113300110461
82 5.738656912972978 -24.595900925657094 9.047178020080509
117 -9.590887104606562 2.5273626869049894 -34.58405527445556
34 -0.5759402469807322 -4.814227941741224 7.856291089248659
63 -35.93928414271405 -7.075981697777163 -32.56150595017582
7 1.5715739569875906 0.2867999245544294 -5.0906652674645265
76 0.16224907404263478 18.393285781491553 11.283022677636087
129 -11.976675940266976 5.2413208504860505 2.9273381379657524
64 16.804633469517572 -1.8087682841138135 17.363849161095978
130 8.885310781770269 13.517040820772669 2.635391326264684
1 -3.04922545185618 2.8675049676308926 -0.7535490110177534
157 -3.576901090632858 13.398017080046198 12.26070979944804
188 -1.9540425081472492 3.6243224469257025 -3.70027567955491
48 3.448985275978492 -7.772484449911766 -6.339781622703649
5 2.0012601496536564 1.1258719950476648 -4.407151309187223
145 4.724469610082235 -1.570127811490066 5.275334689854825
66 -13.078348747151766 -15.792836171998543 29.62387819836519
2 3.4979653100500667 5.210957163101934 2.1774000642097793
147 -18.383259488772175 12.381570986160074 24.246838336530622
32 -1.14549481200209 4.989602701759937 2.192365153275579
126 -2.7545011549354474 6.355493119522291 -7.215675334080729
125 12.206799736265165 9.062566627780496 -5.443388818199667
186 -13.751977581315463 -4.502572298532471 -2.0652051905789817
47 4.131777464498371 -4.3170964014178 -4.225359671683316
155 -1.657642361697714 -4.578370610937633 13.609636127625642
25 -1.8041252780409602 3.7457260908679517 6.570515221555432
110 19.44010955730235 -13.85971853499672 -1.5137526956411196
24 -3.6165463189055234 2.153726689254349 2.230047225728033
112 6.347999261877792 17.60479347983969 13.540040761865534
146 -4.006338950483167 -10.1375566341057 13.46621429265015
109 7.954458091382129 -8.256611286841958 -53.380246037636276
42 3.272744806293143 4.094403701699782 -4.504407921694502
29 -0.9838973298219896 1.6742107386371627 -1.2858132945187202
137 -2.8895723808097897 12.200225923180774 -18.779744260230917
38 8.52271883861259 -4.576993185801997 0.23930109741596672
138 -19.87671371786013 -3.2798152063466364 8.082401991505986
86 21.88854896102862 -3.026509985220381 -5.231971864448372
65 5.624452808000494 -13.357672795453027 10.996721818215681
12 7.132640384546837 5.081570492564888 0.11062283926896971
85 10.765571036998669 21.253122271061013 14.183053004255624
156 -13.414991237128685 25.037364217975625 -13.62784159960302
44 0.44098670429768705 -0.19112237039903218 0.5556611087960519
150 -14.137283847167613 -1.7935880482552446 8.958058105615578
149 13.827840040769031 28.556104910348093 -4.456768176696169
70 0.8994915391550873 -4.598326484300338 -0.5124324858629608
84 27.899465233986295 -22.44489223814759 8.837812968709239
11 4.583393822278774 1.177107639308308 -3.6285531654781145
83 -27.50933834811408 -2.384124422830263 -15.169037724320905
96 -8.55393319048235 -0.8321492217608902 -8.965287779774167
74 7.500313363930711 19.634751776684883 -0.13315393301499473
17 7.442308854030083 0.3706354405511109 9.442568490823636
151 6.907850909065369 10.752522203776579 27.385042384868054
30 -9.241235318050254 2.423344664011852 -1.2597386324886504
122 -39.808475296116875 0.8739490345167301 -5.808226109706165
101 -9.828290957557492 -12.614441820913685 11.603768345911291
102 -28.141119698104895 11.099199462201517 5.994525383673737
20 -0.2142891985356017 -0.1273033560231674 6.718115085208649
113 8.538894568964121 3.572870602365053 -22.246397637168183
111 18.553856178104613 -6.337823587114325 -2.1876686793032443
121 22.66526135732736 -1.3725124854128112 6.089179944973429
128 -11.008277821987095 -22.74410659951592 6.607174449786573
127 7.78173333366181 -9.233198466376525 9.587592909593003
26 0.29259526122825735 -6.207611217017116 -1.05101299380978
33 -1.138416524928072 -7.300378439856296 2.564346360157834
154 -2.0470801868360025 7.945130876570379 -12.816151845741482
163 -16.97770538376262 -17.085416154513453 15.121587423458056
172 8.945611481255916 -32.25130456628361 9.73085179048758
120 10.568051028660868 2.929157706975598 1.2463109212923722
51 -3.144705448524521 -11.542243545826745 1.6554591507052727
134 -14.744602779953203 24.22254402812306 -12.328250170314567
59 3.892185114769003 1.0578823864806561 -0.9264833302157524
179 9.746172796147128 12.515515989278146 2.294535924221341
36 -1.2086128362753705 -4.010264967009988 -5.985252434521322
55 -3.905507409614812 -4.88012146965684 5.712230666733872
133 18.84922062290944 1.9840847597530868 18.0780882721466
171 -14.655240797328014 10.386155536918363 -8.141651758255227
37 -0.9514701981675238 2.810057642415644 1.4350788163872958
136 39.463801905461374 7.5654894443478415 25.912717270365775
135 13.027922371813077 1.3998072496157885 -14.518840613815781
180 17.699306494458213 32.40051757649226 -3.520399423514314
116 29.940416634728745 6.401838205903549 -7.382946407133243
62 -5.995296415914457 3.1071494214753343 -4.928566968493036
27 -2.897260664004888 6.868859647387416 -5.152228333755919
185 -14.362177057225978 0.5052148973809588 -5.7862636572003465
115 -11.534908587886948 -7.97950313422726 -11.076005947890671
183 10.646606779821587 10.949283484838134 29.244000818073165
184 -4.754557784982975 -28.666338888110946 9.896284379483722
61 2.500844878989348 -4.111550276094172 0.8780024803333458
170 43.55642266488281 7.624468962566734 1.7393756641587697
54 3.245287971173659 0.8803939874334648 1.7191299832516513
169 -36.448130650050665 -2.1037931575230893 16.566510361232478
93 -27.878829670266764 32.29087694374079 -5.1079131141962995
119 -18.256133858547326 20.60522070006617 11.230482074459296
16 -0.2564081298760785 4.743613328513947 -4.983674539534096
94 -1.6536049116407796 5.7078491973008125 -18.975483611420493
80 10.961481197407755 11.927002918534644 16.96255579040607
79 -6.453376888789 14.438914677048112 2.1384482922467813
9 -2.1977279287006235 0.5246236744914416 2.9082619445345497
164 9.359768360449964 12.08015348923475 13.766609999702489
123 19.19057332205816 -6.2335916285938255 30.117692080193095
31 1.0621589734694712 11.380832957432437 -1.4142141989188077
152 -0.6836008905908447 -1.1666902809425574 -4.062199776136367
45 1.725255570603543 2.725439398545517 -1.4705438046059105
124 -4.76595718291554 10.33024239867818 -10.840676979568187
178 21.52765915747902 -7.30915752761393 -11.374733188619919
28 -5.717966554534594 1.1288401093715086 -9.545476992360834
95 -6.205150236070165 -4.4041703173888544 9.498127772773692
118 -3.5469842197948065 -8.504792757134037 -2.6776809957182564
58 3.7955781652225165 7.126022399874811 -4.829875878594466
177 20.22140375585675 26.40441415292188 21.917812258527377
46 0.2215894242372187 -3.6270977935877116 2.752991108866504
153 6.102864395429948 -12.795386428128248 10.866013693460408
175 5.055751125142526 3.445977286667453 -3.3571006730893203
57 -2.0719494929156506 3.4978854123251995 -4.066985484050697
176 22.61293262232526 -15.92354838855261 -28.369484057361362
114 0.24623969270109247 -10.391373562833346 -21.524266151806696
