7.538785934448242188e+00 2.056210041046142578e+00 4.520738601684570312e+00 8.845084190368652344e+00 5.441598892211914062e+00 9.923295021057128906e+00 9.638087272644042969e+00 1.809712171554565430e+00 1.103707599639892578e+01 1.480652618408203125e+01 1.109925651550292969e+01 2.476335763931274414e+00 4.696693897247314453e+00 9.732108116149902344e+00 3.591224431991577148e+00 -5.470722913742065430e-01 1.600907516479492188e+01 1.167724132537841797e+01 6.781358242034912109e+00 4.244920253753662109e+00 6.005865573883056641e+00 -2.479599714279174805e+00 1.356167888641357422e+01 5.072888374328613281e+00 1.498412704467773438e+01 5.544899940490722656e+00 6.639218330383300781e+00 8.968565940856933594e+00 8.592308998107910156e+00 6.388422012329101562e+00 1.338237404823303223e+00 9.998813629150390625e+00 9.162848472595214844e+00 4.847297191619873047e+00 1.833449840545654297e+00 7.655013084411621094e+00 8.732959747314453125e+00 -4.948458373546600342e-01 2.849306344985961914e+00 1.384863185882568359e+01 8.587144851684570312e+00 3.620133876800537109e+00 9.513819813728332520e-01 -2.966526746749877930e+00 -6.858655214309692383e-01 1.873599648475646973e+00 4.813213348388671875e+00 1.632191389799118042e-01 4.933475494384765625e+00 1.077166938781738281e+01 9.669228792190551758e-01 1.576508641242980957e+00 1.233733558654785156e+01 8.091505050659179688e+00 1.039800167083740234e+01 -6.167583465576171875e-01 1.291158771514892578e+01 -3.377709865570068359e+00 5.275778293609619141e+00 5.264759063720703125e-01 1.101595759391784668e+00 1.238151168823242188e+01 4.479003906250000000e+00 1.108982181549072266e+01 8.114314079284667969e+00 2.540804862976074219e+00 3.971894502639770508e+00 -6.424289941787719727e-01 9.602723121643066406e+00 3.432775974273681641e+00 8.639550209045410156e+00 1.255771732330322266e+01 7.472624301910400391e+00 9.595830917358398438e+00 1.201448440551757812e+01 4.120223522186279297e+00 1.280189323425292969e+01 5.145537853240966797e+00 5.220648288726806641e+00 5.796669006347656250e+00 2.465658664703369141e+00 1.257240295410156250e+01 8.453636169433593750e+00 7.290003299713134766e+00 1.992534637451171875e+00 5.657373428344726562e+00 9.973604202270507812e+00 -5.186525344848632812e+00 7.632697105407714844e+00 -2.625431060791015625e+00 2.648971080780029297e+00 6.663916587829589844e+00 1.946834444999694824e+00 9.935030937194824219e+00 1.118787384033203125e+01 6.960013389587402344e+00 9.005938529968261719e+00 5.892438411712646484e+00 5.962811470031738281e+00 9.916532516479492188e+00 1.003269290924072266e+01 -1.632718920707702637e+00 -6.439372301101684570e-01 5.372176647186279297e+00 9.691305160522460938e+00 -1.526871442794799805e+00 1.416941165924072266e+01 2.016523361206054688e+00 6.689937591552734375e+00 1.094844460487365723e+00 9.570598602294921875e+00 4.571270942687988281e+00 4.383785247802734375e+00 -7.570526123046875000e+00 3.737978219985961914e+00 9.190013885498046875e+00 8.199679374694824219e+00 -1.787652850151062012e+00 7.882964134216308594e+00 -3.030813694000244141e+00 6.842688083648681641e+00 2.443799018859863281e+00 1.196761989593505859e+01 1.237882995605468750e+01 -1.651865363121032715e+00 6.286193847656250000e+00 8.679618835449218750e+00 -5.606834292411804199e-01 9.177180290222167969e+00 9.090506553649902344e+00 -3.261601448059082031e+00 1.613791847229003906e+01 7.865375518798828125e+00 7.529075622558593750e+00 1.904443025588989258e+00 -5.947465896606445312e-01 2.637225627899169922e+00 6.043207645416259766e+00 8.188560485839843750e+00 2.818558931350708008e+00 1.427283763885498047e+01 1.567741107940673828e+01 7.978367328643798828e+00 5.702926158905029297e+00 -2.060103893280029297e+00 4.202951431274414062e+00 -4.719609737396240234e+00 6.043386459350585938e-01 1.190109443664550781e+01 6.248795986175537109e-01 1.296638870239257812e+01 4.606123924255371094e+00 1.717831611633300781e+01 2.514435052871704102e+00 8.533478975296020508e-01 1.153142929077148438e+01 -3.669573366641998291e-01 7.210450172424316406e+00 7.085182517766952515e-02 6.407060146331787109e+00 1.146856880187988281e+01 5.157178401947021484e+00 1.046033573150634766e+01 1.827849578857421875e+01 1.613690948486328125e+01 -4.800463676452636719e+00 3.533070087432861328e+00 8.299898147583007812e+00 5.030295848846435547e+00 4.510278224945068359e+00 1.237578487396240234e+01 6.557647228240966797e+00 9.757901191711425781e+00 7.322254657745361328e+00 1.610749816894531250e+01 3.812320470809936523e+00 9.297185897827148438e+00 4.101969718933105469e+00 1.935123562812805176e+00 3.236140966415405273e+00 1.344061946868896484e+01 2.560833215713500977e+00 3.020080089569091797e+00 4.507434368133544922e+00 7.479862213134765625e+00 1.011287879943847656e+01 4.641079425811767578e+00 1.053139090538024902e+00 7.736679315567016602e-01 1.098684549331665039e+00 2.403514862060546875e+00 9.740552902221679688e+00 8.446056365966796875e+00 1.741996526718139648e+00 4.845628261566162109e+00 8.827906608581542969e+00 5.347325325012207031e+00 1.089491939544677734e+01 8.752215385437011719e+00 2.237246036529541016e+00 1.113821506500244141e+01 1.442405986785888672e+01 1.170219421386718750e+01 3.097194910049438477e+00 5.440520286560058594e+00 1.026444530487060547e+01 4.087122440338134766e+00 1.254329967498779297e+01 1.611599540710449219e+01 1.240615272521972656e+01 7.382513523101806641e+00 5.010221004486083984e+00 5.939285755157470703e+00 -1.743649721145629883e+00 1.417027854919433594e+01 5.332100391387939453e+00 1.455937767028808594e+01 5.562180519104003906e+00 7.480218410491943359e+00 9.074072837829589844e+00 7.602233886718750000e+00 6.516631126403808594e+00 2.147960424423217773e+00 9.560669898986816406e+00 8.811538696289062500e+00 1.803719520568847656e+01 1.394471406936645508e+00 8.102769851684570312e+00 7.809197902679443359e+00 -1.627022773027420044e-01 2.840416193008422852e+00 1.432109260559082031e+01 8.736407279968261719e+00 4.415413379669189453e+00 1.101138353347778320e+00 9.686809539794921875e+00 -1.718099713325500488e+00 1.799168944358825684e+00 5.262468814849853516e+00 -6.412000060081481934e-01 4.204438209533691406e+00 1.012046718597412109e+01 7.021190524101257324e-01 1.370176124572753906e+01 1.203195762634277344e+01 7.200287342071533203e+00 1.127324390411376953e+01 -8.466922044754028320e-01 1.309806537628173828e+01 -2.450293302536010742e+00 5.235341548919677734e+00 7.895687818527221680e-01 5.407189130783081055e-01 1.181800556182861328e+01 5.067951679229736328e+00 1.197801113128662109e+01 8.298505783081054688e+00 3.008426904678344727e+00 3.521997213363647461e+00 -1.949345879256725311e-02 8.911999702453613281e+00 3.265372514724731445e+00 7.928289413452148438e+00 1.317122077941894531e+01 8.422927856445312500e+00 9.773386955261230469e+00 -6.685825586318969727e-01 3.979435443878173828e+00 1.335367870330810547e+01 4.368080615997314453e+00 5.084866523742675781e+00 5.026124477386474609e+00 3.081819057464599609e+00 1.300009250640869141e+01 9.025997161865234375e+00 7.960978031158447266e+00 2.566309690475463867e+00 4.921693801879882812e+00 9.647798538208007812e+00 -4.636206626892089844e+00 6.847426891326904297e+00 -2.499271154403686523e+00 2.139053106307983398e+00 7.198937892913818359e+00 2.607021331787109375e+00 9.636826515197753906e+00 1.023910045623779297e+01 6.794615268707275391e+00 9.583166122436523438e+00 5.811294555664062500e+00 5.137630462646484375e+00 1.033254623413085938e+01 1.043418598175048828e+01 1.163446903228759766e+01 -7.283999919891357422e-01 4.774444580078125000e+00 1.044706726074218750e+01 1.086861515045166016e+01 1.348477077484130859e+01 1.328223824501037598e+00 6.607338428497314453e+00 1.347103953361511230e+00 1.053648757934570312e+01 5.429796218872070312e+00 4.297730922698974609e+00 -7.086617469787597656e+00 4.039463520050048828e+00 8.602803230285644531e+00 8.887722015380859375e+00 -1.307970404624938965e+00 6.959492683410644531e+00 -2.915399074554443359e+00 6.278937339782714844e+00 3.279129981994628906e+00 1.192635250091552734e+01 1.145512676239013672e+01 -1.324405193328857422e+00 6.539015293121337891e+00 9.319776535034179688e+00 -3.939937055110931396e-02 9.679279327392578125e+00 8.873591423034667969e+00 -2.346414327621459961e+00 1.601580047607421875e+01 7.006590366363525391e+00 7.214248180389404297e+00 2.126879692077636719e+00 -1.201559305191040039e+00 2.957909584045410156e+00 6.710817813873291016e+00 7.957649230957031250e+00 2.551888704299926758e+00 1.517739772796630859e+01 1.632014465332031250e+01 8.261207580566406250e+00 5.081865787506103516e+00 -2.855813980102539062e+00 3.948591232299804688e+00 -4.159958362579345703e+00 1.250894188880920410e+00 1.170053291320800781e+01 1.285284996032714844e+00 1.378420734405517578e+01 4.987724781036376953e+00 1.754079818725585938e+01 2.711926460266113281e+00 1.015430688858032227e-01 -1.558986067771911621e+00 -1.001081585884094238e+00 6.985242843627929688e+00 -6.361287236213684082e-01 5.491337776184082031e+00 1.185211849212646484e+01 5.318653106689453125e+00 1.133780384063720703e+01 1.798439788818359375e+01 1.650732421875000000e+01 -5.247838973999023438e+00 3.710293054580688477e+00 7.423511505126953125e+00 1.682225990295410156e+01 4.876015663146972656e+00 1.181293964385986328e+01 5.858397483825683594e+00 9.037836074829101562e+00 7.318599700927734375e+00 1.672617340087890625e+01 3.391434907913208008e+00 8.625509262084960938e+00 4.527166843414306641e+00 1.939089298248291016e+00 2.368678331375122070e+00 1.282038307189941406e+01 2.040794849395751953e+00 2.454065322875976562e+00 4.379591464996337891e+00 7.875113010406494141e+00 1.099201202392578125e+01 5.388755321502685547e+00 1.275641202926635742e+00 1.739929616451263428e-01 1.384835910797119141e+01 1.884767651557922363e+00 1.048859882354736328e+01 6.913468837738037109e+00 1.359774470329284668e+00 4.748441219329833984e+00 8.156876564025878906e+00 4.812394618988037109e+00 9.657136917114257812e+00 9.639081954956054688e+00 1.361791706085205078e+01 1.175342273712158203e+01 1.560968780517578125e+01 1.070995426177978516e+01 2.878698825836181641e+00 5.013733386993408203e+00 9.808606147766113281e+00 2.663360595703125000e+00 1.136067199707031250e+01 1.522404479980468750e+01 1.188193035125732422e+01 7.170150279998779297e+00 3.591423988342285156e+00 5.391515254974365234e+00 -2.588345050811767578e+00 1.296044254302978516e+01 5.826751232147216797e+00 1.521071338653564453e+01 6.448116302490234375e+00 6.336821556091308594e+00 8.966556549072265625e+00 8.820547103881835938e+00 5.388812065124511719e+00 1.337050795555114746e+00 1.101915740966796875e+01 8.864090919494628906e+00 4.875644207000732422e+00 1.388687038421630859e+01 6.740209579467773438e+00 9.320519447326660156e+00 4.692079126834869385e-02 3.376931905746459961e+00 1.389260864257812500e+01 9.498078346252441406e+00 3.238327741622924805e+00 6.163266897201538086e-01 -2.156761646270751953e+00 -2.475621551275253296e-01 2.496432304382324219e+00 4.069545269012451172e+00 4.928032308816909790e-02 5.646687984466552734e+00 1.059350585937500000e+01 3.559503257274627686e-01 1.163672447204589844e+00 1.324369049072265625e+01 8.214926719665527344e+00 9.903998374938964844e+00 -7.505199909210205078e-01 1.370539665222167969e+01 -3.700910568237304688e+00 6.034768581390380859e+00 9.673117995262145996e-01 7.599236965179443359e-01 1.327571582794189453e+01 4.652218341827392578e+00 1.134181594848632812e+01 7.667191505432128906e+00 1.734942317008972168e+00 4.915492534637451172e+00 -4.536933004856109619e-01 9.544060707092285156e+00 2.551920175552368164e+00 8.954647064208984375e+00 1.238804721832275391e+01 7.541923046112060547e+00 8.977421760559082031e+00 1.283191108703613281e+01 3.273215770721435547e+00 1.269381332397460938e+01 5.562876224517822266e+00 4.290982246398925781e+00 6.156425476074218750e+00 2.448980093002319336e+00 1.178831100463867188e+01 8.121984481811523438e+00 7.752818107604980469e+00 2.546118974685668945e+00 6.445322036743164062e+00 9.865338325500488281e+00 -5.128639221191406250e+00 8.182625770568847656e+00 1.072635269165039062e+01 2.125711917877197266e+00 6.023422718048095703e+00 1.465289831161499023e+00 9.550815582275390625e+00 1.145495510101318359e+01 7.844060897827148438e+00 9.467577934265136719e+00 5.306601524353027344e+00 6.630013465881347656e+00 1.050761318206787109e+01 9.345961570739746094e+00 1.038891601562500000e+01 3.431543111801147461e-01 5.602896213531494141e+00 9.816549301147460938e+00 -2.400364398956298828e+00 2.118551254272460938e+00 1.438053226470947266e+01 7.440079689025878906e+00 4.690712094306945801e-01 9.398918151855468750e+00 3.750091314315795898e+00 4.595719814300537109e+00 -6.979223251342773438e+00 4.198950767517089844e+00 1.001305961608886719e+01 8.442149162292480469e+00 -2.694896936416625977e+00 7.544677257537841797e+00 -3.146456480026245117e+00 7.224647521972656250e+00 2.460844993591308594e+00 1.284767055511474609e+01 1.235319900512695312e+01 -2.625317335128784180e+00 6.425291061401367188e+00 8.699257850646972656e+00 -1.379045367240905762e+00 9.588755607604980469e+00 9.851709365844726562e+00 -3.528045892715454102e+00 1.559409904479980469e+01 8.231308937072753906e+00 8.150958061218261719e+00 2.555596351623535156e+00 1.225324153900146484e+01 3.439230203628540039e+00 5.608703613281250000e+00 8.179363250732421875e+00 3.748632431030273438e+00 1.410238647460937500e+01 1.580645465850830078e+01 8.553825378417968750e+00 6.472599983215332031e+00 -1.432104349136352539e+00 4.652403831481933594e+00 -4.166065692901611328e+00 1.085681200027465820e+00 1.239284706115722656e+01 -4.846374690532684326e-02 7.187178134918212891e-01 3.888612270355224609e+00 4.128298759460449219e+00 3.269031286239624023e+00 9.704755544662475586e-01 -3.235445916652679443e-01 1.028398424386978149e-01 8.070792198181152344e+00 -2.486946582794189453e-01 6.483121871948242188e+00 1.088594913482666016e+01 5.927443504333496094e+00 1.045951271057128906e+01 1.914634895324707031e+01 1.567038822174072266e+01 -4.851129055023193359e+00 2.678945779800415039e+00 8.720579147338867188e+00 5.035254001617431641e+00 5.185717582702636719e+00 1.309696960449218750e+01 7.421670436859130859e+00 9.195144653320312500e+00 7.110919475555419922e+00 1.540565872192382812e+01 3.141388177871704102e+00 9.601083755493164062e+00 4.394802093505859375e+00 2.748448848724365234e+00 3.712831735610961914e+00 1.436352157592773438e+01 2.262404441833496094e+00 2.959295272827148438e+00 5.460515022277832031e+00 7.371578216552734375e+00 9.999835014343261719e+00 4.737411975860595703e+00 7.893617451190948486e-02 1.335670185089111328e+01 5.336965322494506836e-01 3.069822072982788086e+00 1.026297664642333984e+01
9.906568527221679688e+00 7.232000827789306641e-01 3.338674545288085938e+00 6.461889266967773438e+00 6.801885604858398438e+00 1.021714305877685547e+01 7.674604892730712891e+00 1.100011348724365234e+00 8.119643211364746094e+00 1.271607685089111328e+01 9.230650901794433594e+00 4.465118408203125000e+00 5.807984828948974609e+00 7.593482017517089844e+00 4.722684860229492188e+00 -1.980625748634338379e+00 1.394244480133056641e+01 8.771483421325683594e+00 7.160032749176025391e+00 2.728765964508056641e+00 4.316694736480712891e+00 7.806264162063598633e-01 1.228172779083251953e+01 4.280864238739013672e+00 1.491523075103759766e+01 5.795972347259521484e+00 7.095632076263427734e+00 8.064396858215332031e+00 9.251023292541503906e+00 5.610548973083496094e+00 1.673231959342956543e+00 1.093883419036865234e+01 1.109155559539794922e+01 3.120177268981933594e+00 2.320357561111450195e+00 9.874871253967285156e+00 5.835502147674560547e+00 -4.795970320701599121e-01 3.242443561553955078e+00 1.057100391387939453e+01 7.554005146026611328e+00 5.042170047760009766e+00 1.903387069702148438e+00 -2.815752029418945312e+00 1.076981544494628906e+00 1.558733880519866943e-01 8.028782844543457031e+00 2.067871332168579102e+00 5.279823780059814453e+00 8.024337768554687500e+00 2.065050601959228516e+00 1.638073444366455078e+00 1.293388557434082031e+01 8.062067985534667969e+00 7.788377761840820312e+00 5.512651205062866211e-01 1.128481101989746094e+01 2.998090744018554688e+00 1.288112640380859375e+00 3.451992511749267578e+00 4.251140117645263672e+00 1.202915096282958984e+01 6.978207588195800781e+00 8.795825004577636719e+00 8.544148445129394531e+00 1.919442296028137207e+00 3.598511219024658203e+00 5.174887776374816895e-01 1.159400939941406250e+01 3.164940357208251953e+00 7.016943454742431641e+00 1.314555644989013672e+01 5.697175025939941406e+00 1.095174694061279297e+01 1.155432033538818359e+01 3.726476669311523438e+00 9.637693405151367188e+00 5.770042896270751953e+00 3.654778480529785156e+00 5.705271720886230469e+00 4.585193634033203125e+00 1.042865467071533203e+01 5.375117778778076172e+00 6.743146896362304688e+00 7.381281852722167969e+00 5.488150119781494141e+00 4.023260593414306641e+00 -9.089995026588439941e-01 1.169111251831054688e+01 -2.141008853912353516e+00 1.703881978988647461e+00 5.768349647521972656e+00 2.598170280456542969e+00 1.001266860961914062e+01 1.147483825683593750e+01 5.381891250610351562e+00 1.039267063140869141e+01 5.377975463867187500e+00 2.756738185882568359e+00 9.814650535583496094e+00 1.205243492126464844e+01 2.881248295307159424e-01 4.148643910884857178e-01 4.140155792236328125e+00 7.479814529418945312e+00 -1.022730320692062378e-01 1.183160972595214844e+01 1.531692981719970703e+00 7.452085494995117188e+00 3.351438283920288086e+00 9.768188476562500000e+00 5.151206970214843750e+00 3.838201999664306641e+00 -1.361340165138244629e+00 2.896922588348388672e+00 9.524766921997070312e+00 8.990350723266601562e+00 -2.050953388214111328e+00 9.125873565673828125e+00 -2.328745126724243164e+00 7.318733215332031250e+00 5.925409317016601562e+00 1.364594650268554688e+01 1.183070945739746094e+01 -1.647683382034301758e+00 7.746943473815917969e+00 7.384086608886718750e+00 2.334026247262954712e-02 5.581391334533691406e+00 8.176688194274902344e+00 -1.203227400779724121e+00 1.485141277313232422e+01 7.082296848297119141e+00 8.932035446166992188e+00 -4.136848449707031250e-01 -8.566480278968811035e-01 2.863907337188720703e+00 3.957129240036010742e+00 1.030927276611328125e+01 3.900983572006225586e+00 1.024418354034423828e+01 1.356387138366699219e+01 8.258657455444335938e+00 7.050704956054687500e+00 -2.683320343494415283e-01 7.362601757049560547e+00 -2.818053960800170898e+00 3.734213352203369141e+00 1.018687343597412109e+01 2.984459161758422852e+00 1.393069648742675781e+01 3.034201860427856445e+00 1.489215946197509766e+01 4.719477653503417969e+00 1.616398334503173828e+00 1.387714385986328125e+01 -1.645243763923645020e+00 7.830817699432373047e+00 4.057191312313079834e-02 5.829257965087890625e+00 1.066652011871337891e+01 8.897797584533691406e+00 9.708444595336914062e+00 1.769928550720214844e+01 1.253769111633300781e+01 -3.648317337036132812e+00 6.069504261016845703e+00 8.775610923767089844e+00 2.087154388427734375e+00 5.908105373382568359e+00 1.077907562255859375e+01 8.252572059631347656e+00 8.825194358825683594e+00 8.410426139831542969e+00 1.333606052398681641e+01 3.524013519287109375e+00 1.021105670928955078e+01 4.626977920532226562e+00 2.114237785339355469e+00 5.482594013214111328e+00 1.199697780609130859e+01 2.214305162429809570e+00 -1.997469514608383179e-01 4.121327877044677734e+00 6.206508159637451172e+00 8.953520774841308594e+00 7.366094589233398438e+00 2.411577224731445312e+00 1.167523741722106934e+00 -2.686267793178558350e-01 1.756545662879943848e+00 6.491417407989501953e+00 9.980494499206542969e+00 -4.767125099897384644e-02 3.892992973327636719e+00 6.702400207519531250e+00 7.622957229614257812e+00 1.073838233947753906e+01 7.494631767272949219e+00 1.919119477272033691e+00 8.652153968811035156e+00 1.290075969696044922e+01 1.016205501556396484e+01 4.509336471557617188e+00 5.321618080139160156e+00 6.770981788635253906e+00 4.869838237762451172e+00 1.095915508270263672e+01 1.325239753723144531e+01 9.310027122497558594e+00 7.158339500427246094e+00 3.649147987365722656e+00 4.116210460662841797e+00 1.651551604270935059e+00 1.271549415588378906e+01 4.100700378417968750e+00 1.557474517822265625e+01 5.980972766876220703e+00 7.772925853729248047e+00 7.171145439147949219e+00 8.918382644653320312e+00 5.453594684600830078e+00 2.141622543334960938e+00 1.032774066925048828e+01 1.047358226776123047e+01 1.592934608459472656e+01 1.649329066276550293e+00 1.043548107147216797e+01 6.119458675384521484e+00 -1.412030160427093506e-01 4.137748241424560547e+00 1.068292427062988281e+01 7.109919548034667969e+00 4.168159961700439453e+00 2.436998844146728516e+00 1.019131851196289062e+01 1.724128246307373047e+00 8.162823915481567383e-01 8.598072052001953125e+00 1.567333102226257324e+00 5.794914245605468750e+00 8.544466018676757812e+00 1.444103598594665527e+00 1.375553894042968750e+01 1.215980529785156250e+01 8.508481979370117188e+00 8.683375358581542969e+00 3.538370132446289062e-01 1.163089275360107422e+01 3.544730901718139648e+00 1.420507550239562988e+00 4.209202766418457031e+00 3.488627433776855469e+00 1.245815563201904297e+01 7.458065509796142578e+00 8.372748374938964844e+00 7.670001029968261719e+00 1.883251905441284180e+00 2.710763454437255859e+00 1.121130809187889099e-01 1.173312950134277344e+01 2.804496526718139648e+00 7.982162475585937500e+00 1.314529228210449219e+01 5.725909709930419922e+00 1.082850074768066406e+01 -1.854120612144470215e+00 3.523209095001220703e+00 9.594141960144042969e+00 4.775512695312500000e+00 3.195548057556152344e+00 5.769884109497070312e+00 5.471269607543945312e+00 1.122099208831787109e+01 4.831118583679199219e+00 6.936719894409179688e+00 7.259518146514892578e+00 5.677913188934326172e+00 3.071318387985229492e+00 -1.475975871086120605e+00 1.161888027191162109e+01 -1.337225675582885742e+00 2.323183298110961914e+00 5.784489631652832031e+00 3.392682313919067383e+00 9.704105377197265625e+00 1.058465671539306641e+01 5.088166236877441406e+00 1.081749439239501953e+01 4.614002227783203125e+00 3.234511375427246094e+00 1.057068634033203125e+01 1.209921455383300781e+01 1.334786128997802734e+01 5.495294332504272461e-01 3.881515026092529297e+00 8.411589622497558594e+00 1.240402030944824219e+01 1.088597011566162109e+01 1.547705888748168945e+00 6.599475383758544922e+00 3.417363166809082031e+00 1.026725578308105469e+01 4.350239276885986328e+00 3.532496213912963867e+00 -1.808791279792785645e+00 3.106990098953247070e+00 8.602887153625488281e+00 9.049566268920898438e+00 -1.395366311073303223e+00 8.434080123901367188e+00 -2.642044305801391602e+00 6.846230506896972656e+00 6.628421306610107422e+00 1.320752334594726562e+01 1.130698299407958984e+01 -1.335791587829589844e+00 6.918092727661132812e+00 7.366411685943603516e+00 4.080247581005096436e-01 6.438287734985351562e+00 7.204007625579833984e+00 -1.149161338806152344e+00 1.500831317901611328e+01 6.517241001129150391e+00 9.755752563476562500e+00 -4.191977977752685547e-01 -5.455129742622375488e-01 2.700375556945800781e+00 4.875791549682617188e+00 9.329659461975097656e+00 3.765117406845092773e+00 1.014379882812500000e+01 1.336622333526611328e+01 8.426565170288085938e+00 6.050136566162109375e+00 2.214511483907699585e-02 6.610111713409423828e+00 -2.224486589431762695e+00 4.292569637298583984e+00 1.094989395141601562e+01 3.284010410308837891e+00 1.408860301971435547e+01 3.994774818420410156e+00 1.473224163055419922e+01 4.406009197235107422e+00 1.167894244194030762e+00 6.228945255279541016e-01 -1.981535911560058594e+00 8.237331390380859375e+00 -7.849497795104980469e-01 5.297805309295654297e+00 1.107806110382080078e+01 8.130067825317382812e+00 9.939589500427246094e+00 1.706300354003906250e+01 1.184827899932861328e+01 -3.126283884048461914e+00 5.870110511779785156e+00 9.533392906188964844e+00 1.487501335144042969e+01 6.106282234191894531e+00 1.163962364196777344e+01 8.539015769958496094e+00 8.968708038330078125e+00 7.532467842102050781e+00 1.420825004577636719e+01 2.986052036285400391e+00 1.028212547302246094e+01 4.890989303588867188e+00 1.222907423973083496e+00 5.861114501953125000e+00 1.248403167724609375e+01 1.545213460922241211e+00 2.941733300685882568e-01 3.536427974700927734e+00 6.156500816345214844e+00 9.752737045288085938e+00 7.305979728698730469e+00 3.371065378189086914e+00 9.329024553298950195e-01 1.133931636810302734e+01 1.590532183647155762e+00 7.074253082275390625e+00 9.262030601501464844e+00 3.259245157241821289e-01 2.755473613739013672e+00 7.149343490600585938e+00 6.601274490356445312e+00 9.533974647521972656e+00 7.578453063964843750e+00 1.286519813537597656e+01 8.799530029296875000e+00 1.275692844390869141e+01 8.884779930114746094e+00 3.502804040908813477e+00 5.543978214263916016e+00 7.892414093017578125e+00 3.824872016906738281e+00 9.541489601135253906e+00 1.356683444976806641e+01 8.703907012939453125e+00 7.249093532562255859e+00 2.389076471328735352e+00 3.405160427093505859e+00 3.156224787235260010e-01 1.293219280242919922e+01 4.859905719757080078e+00 1.437854003906250000e+01 6.662394523620605469e+00 6.912430763244628906e+00 8.665859222412109375e+00 8.516314506530761719e+00 5.378557682037353516e+00 7.700269818305969238e-01 1.118580150604248047e+01 1.074388599395751953e+01 2.602980613708496094e+00 1.421708774566650391e+01 9.245838165283203125e+00 5.666377067565917969e+00 3.688540160655975342e-01 2.764697074890136719e+00 1.128862094879150391e+01 8.225531578063964844e+00 5.080429553985595703e+00 1.621478438377380371e+00 -2.449693679809570312e+00 1.815400719642639160e-01 -5.789358019828796387e-01 7.841189861297607422e+00 1.481606364250183105e+00 4.616436481475830078e+00 7.574907779693603516e+00 1.454115629196166992e+00 9.836558103561401367e-01 1.324546527862548828e+01 7.395199298858642578e+00 7.446952819824218750e+00 1.318111777305603027e+00 1.168518638610839844e+01 2.609526395797729492e+00 2.150782823562622070e+00 3.144926786422729492e+00 3.807790040969848633e+00 1.144430446624755859e+01 6.344729423522949219e+00 9.636899948120117188e+00 8.314062118530273438e+00 1.431424498558044434e+00 4.227295398712158203e+00 -1.969539523124694824e-01 1.126904106140136719e+01 2.557963371276855469e+00 6.623023509979248047e+00 1.380729293823242188e+01 6.312502384185791016e+00 1.172222900390625000e+01 1.161168384552001953e+01 4.485898971557617188e+00 8.982307434082031250e+00 5.919852733612060547e+00 3.831650733947753906e+00 4.757578849792480469e+00 4.596428394317626953e+00 1.066069889068603516e+01 6.058603286743164062e+00 6.099667549133300781e+00 6.945345401763916016e+00 6.243550777435302734e+00 4.400918483734130859e+00 -1.165676951408386230e+00 1.084644031524658203e+01 9.832748413085937500e+00 9.705163836479187012e-01 6.436594486236572266e+00 2.680854320526123047e+00 9.130582809448242188e+00 1.174408340454101562e+01 5.869634151458740234e+00 9.565619468688964844e+00 5.434121131896972656e+00 3.185795307159423828e+00 9.119153022766113281e+00 1.164745616912841797e+01 1.323959159851074219e+01 1.217695116996765137e+00 4.708719730377197266e+00 7.304339408874511719e+00 3.041208162903785706e-02 -4.748836755752563477e-01 1.498608779907226562e+01 7.541410923004150391e+00 4.086465358734130859e+00 9.139155387878417969e+00 5.180131912231445312e+00 4.752683639526367188e+00 -1.385581851005554199e+00 3.792581558227539062e+00 9.929429054260253906e+00 8.980719566345214844e+00 -2.750287532806396484e+00 9.056868553161621094e+00 -2.990322351455688477e+00 8.094824790954589844e+00 5.809889793395996094e+00 1.305236816406250000e+01 1.193897914886474609e+01 -2.595265150070190430e+00 7.630047798156738281e+00 7.914057254791259766e+00 5.639706254005432129e-01 4.972916603088378906e+00 8.511180877685546875e+00 -1.978154540061950684e+00 1.526205348968505859e+01 7.637085914611816406e+00 9.021466255187988281e+00 3.237839937210083008e-01 1.087893199920654297e+01 2.242002248764038086e+00 3.699049472808837891e+00 1.069197368621826172e+01 3.268844366073608398e+00 9.563714981079101562e+00 1.440028858184814453e+01 8.747088432312011719e+00 7.095896720886230469e+00 6.086437702178955078e-01 7.585914611816406250e+00 -3.251709461212158203e+00 4.368802547454833984e+00 9.472113609313964844e+00 2.643843650817871094e+00 6.623446941375732422e-01 2.875813722610473633e+00 2.948686838150024414e+00 3.987339973449707031e+00 1.578435182571411133e+00 2.087725877761840820e+00 -1.877827763557434082e+00 6.844431400299072266e+00 -6.077230349183082581e-02 6.499725341796875000e+00 1.006722640991210938e+01 8.527956008911132812e+00 1.007971572875976562e+01 1.749587059020996094e+01 1.341178607940673828e+01 -3.013288736343383789e+00 5.835290431976318359e+00 8.010790824890136719e+00 1.643248796463012695e+00 5.067914485931396484e+00 1.074012851715087891e+01 8.359148025512695312e+00 7.847381114959716797e+00 8.583678245544433594e+00 1.282318210601806641e+01 3.190695285797119141e+00 1.096846866607666016e+01 5.442164897918701172e+00 2.389616250991821289e+00 5.014727115631103516e+00 1.125702857971191406e+01 1.712057709693908691e+00 -5.659868121147155762e-01 5.037444591522216797e+00 6.494380474090576172e+00 9.287272453308105469e+00 6.378967285156250000e+00 2.184210777282714844e+00 1.388121891021728516e+01 1.110055148601531982e-01 2.626216650009155273e+00 6.815432548522949219e+00