-2.994390625000000000e+04
-2.994378710937500000e+04
-2.994314257812500000e+04
-2.994347265625000000e+04
-2.994382031250000000e+04
-2.994266796875000000e+04
-2.994376562500000000e+04
-2.994423632812500000e+04
-2.994391406250000000e+04
-2.994558007812500000e+04
-2.994236132812500000e+04
-2.994444140625000000e+04
-2.994364648437500000e+04
-2.994245312500000000e+04
-2.994370507812500000e+04
-2.994365234375000000e+04
-2.994341992187500000e+04
-2.994275976562500000e+04
-2.994479687500000000e+04
-2.994475585937500000e+04
-2.994352734375000000e+04
-2.994414257812500000e+04
-2.994374218750000000e+04
-2.994320507812500000e+04
-2.994438671875000000e+04
-2.994377539062500000e+04
-2.994283984375000000e+04
-2.994350195312500000e+04
-2.994396679687500000e+04
-2.994382617187500000e+04
-2.994436914062500000e+04
-2.994400195312500000e+04
-2.994303515625000000e+04
-2.994316992187500000e+04
-2.994396875000000000e+04
-2.994400976562500000e+04
-2.994393359375000000e+04
-2.994484765625000000e+04
-2.994298632812500000e+04
-2.994295312500000000e+04
-2.994364843750000000e+04
-2.994344140625000000e+04
-2.994218164062500000e+04
-2.994373632812500000e+04
-2.994348046875000000e+04
-2.994283007812500000e+04
-2.994408593750000000e+04
-2.994414648437500000e+04
-2.994402343750000000e+04
-2.994277539062500000e+04
-2.994464843750000000e+04
-2.994384375000000000e+04
-2.994344726562500000e+04
-2.994368945312500000e+04
-2.994246875000000000e+04
-2.994410546875000000e+04
-2.994336718750000000e+04
-2.994292578125000000e+04
-2.994369140625000000e+04
-2.994327539062500000e+04
-2.994408007812500000e+04
-2.994479882812500000e+04
-2.994167968750000000e+04
-2.994303710937500000e+04
-2.994335937500000000e+04
-2.994438281250000000e+04
-2.994257617187500000e+04
-2.994244531250000000e+04
-2.994283007812500000e+04
-2.994320898437500000e+04
-2.994340039062500000e+04
-2.994371093750000000e+04
-2.994382421875000000e+04
-2.994319726562500000e+04
-2.994421093750000000e+04
-2.994315625000000000e+04
-2.994326171875000000e+04
-2.994350976562500000e+04
-2.994336132812500000e+04
-2.994485156250000000e+04
