6.219968795776367188e-01 1.840098053216934204e-01 -4.290576651692390442e-02 -3.840506374835968018e-01 -3.408888354897499084e-02 1.044586539268493652e+00 -7.766038179397583008e-01 4.134677648544311523e-01 -9.799525886774063110e-02 4.563259184360504150e-01 -1.266402721405029297e+00 -9.964365363121032715e-01 1.840442657470703125e+00 1.093095779418945312e+00 4.938868284225463867e-01 3.264535963535308838e-01 -2.865633070468902588e-01 8.040767908096313477e-01 4.655855000019073486e-01 -6.662586331367492676e-02 -1.064396947622299194e-01 -6.481575965881347656e-01 -3.566178679466247559e-01 4.701463505625724792e-02 5.387151241302490234e-01 -4.089137017726898193e-01 -1.604780077934265137e+00 -1.940869987010955811e-01 2.842276096343994141e-01 -8.318482637405395508e-01 -3.686514794826507568e-01 1.349705696105957031e+00 -1.106736250221729279e-02 2.805709540843963623e-01 -8.570575714111328125e-01 -1.268989443778991699e+00 -8.287175297737121582e-01 -8.772711157798767090e-01 -9.680681824684143066e-01 -1.160012006759643555e+00 8.837611675262451172e-01 -1.996648430824279785e+00 5.646650120615959167e-02 7.194434851408004761e-02 -1.695954561233520508e+00 2.792376279830932617e-01 -2.065118789672851562e+00 2.635964393615722656e+00 -1.110241293907165527e+00 -4.751549363136291504e-01 2.895140275359153748e-02 -7.432047724723815918e-01 1.492809057235717773e+00 -8.886950612068176270e-01 -2.050341129302978516e+00 6.310732364654541016e-01 -1.712799191474914551e+00 7.576733827590942383e-01 -1.547689080238342285e+00 -1.018108248710632324e+00 -3.472937941551208496e-01 5.633895993232727051e-01 5.665243268013000488e-01 1.866684794425964355e+00 9.457216262817382812e-01 1.476873159408569336e+00 -1.250853061676025391e+00 1.099552512168884277e+00 -1.782587528228759766e+00 1.422142744064331055e+00 3.667203783988952637e-01 -3.242814242839813232e-01 5.978116989135742188e-01 -1.478747725486755371e+00 1.846451282501220703e+00 5.560697913169860840e-01 -6.766309738159179688e-01 1.491398453712463379e+00 -9.612903594970703125e-01 -5.780324339866638184e-01 1.903579086065292358e-01 1.431223750114440918e-01 -5.148504972457885742e-01 -1.485607307404279709e-02 -1.253579258918762207e-01 5.313441753387451172e-01 9.236728399991989136e-02 -4.776985049247741699e-01 2.102098941802978516e+00 2.641319751739501953e+00 6.468533277511596680e-01 1.327047228813171387e+00 9.854367375373840332e-01 -8.385338783264160156e-01 -6.912621855735778809e-01 2.376360595226287842e-01 7.460026741027832031e-01 -6.956670880317687988e-01 2.844194471836090088e-01 8.936728835105895996e-01 2.046459764242172241e-01 1.003043532371520996e+00 1.971073031425476074e+00 1.070241451263427734e+00 2.156556248664855957e-01 3.835141360759735107e-01 -3.449799120426177979e-01 -5.978327989578247070e-01 -2.480974644422531128e-01 6.681186705827713013e-02 6.053313612937927246e-01 -2.692570924758911133e+00 -1.215455532073974609e-01 -1.313646584749221802e-01 -1.289612054824829102e-01 1.159505724906921387e+00 -1.011730313301086426e+00 6.968225240707397461e-01 -2.551414012908935547e+00 3.603389486670494080e-02 -1.157003164291381836e+00 8.350946903228759766e-01 -1.120042085647583008e+00 -3.868654072284698486e-01 1.247936964035034180e+00 -4.293855726718902588e-01 1.607200801372528076e-01 2.874858379364013672e+00 -1.285098910331726074e+00 -7.854890823364257812e-01 -1.010173320770263672e+00 6.502113938331604004e-01 1.263460993766784668e+00 2.016568779945373535e-01 -1.622622489929199219e+00 6.377564072608947754e-01 -6.229926943778991699e-01 -7.867035269737243652e-01 2.150930166244506836e-01 -1.878313541412353516e+00 -4.389677941799163818e-01 -1.145617246627807617e+00 -8.837843686342239380e-02 8.765329718589782715e-01 -2.087295293807983398e+00 -1.091639041900634766e+00 -4.793646633625030518e-01 -1.531474828720092773e+00 -2.343883551657199860e-02 -8.356088995933532715e-01 -5.026807188987731934e-01 9.814379811286926270e-01 4.473568499088287354e-01 -1.311108827590942383e+00 -1.366443037986755371e+00 -1.555953860282897949e+00 1.934112459421157837e-01 1.091311812400817871e+00 -6.520141363143920898e-01 -1.342951893806457520e+00 4.779457449913024902e-01 -2.342088669538497925e-01 -3.312689065933227539e-02 -1.004386544227600098e+00 5.642645955085754395e-01 9.735333919525146484e-01 1.368601083755493164e+00 5.343734025955200195e-01 6.339890360832214355e-01 2.594656348228454590e-01 1.211600542068481445e+00 7.999773621559143066e-01 -2.697938442230224609e+00 -5.795624256134033203e-01 -4.388824701309204102e-01 -1.427758336067199707e+00 3.249451816082000732e-01 -7.947744429111480713e-02 1.396488428115844727e+00 3.574157953262329102e-01 -1.139283031225204468e-01 -1.824583560228347778e-01 -2.659293413162231445e-01 -9.455721378326416016e-01 8.610219508409500122e-02 1.788991391658782959e-01 6.398999691009521484e-01 -2.785676121711730957e-01 -6.106072068214416504e-01 -9.384623169898986816e-01 1.645514369010925293e+00 7.178509831428527832e-01 -4.273615777492523193e-01 7.840286940336227417e-02 -2.511988282203674316e-01 4.088822007179260254e-01 8.884968608617782593e-02 2.186113968491554260e-02 7.072438597679138184e-01 -2.188336700201034546e-01 -6.488877534866333008e-02 -4.503921568393707275e-01 9.195644855499267578e-01 1.544674873352050781e+00 -1.627223253250122070e+00 -9.158061146736145020e-01 -7.768347859382629395e-01 -2.884606122970581055e-01 2.098723798990249634e-01 -3.344754874706268311e-01 4.067753255367279053e-01 4.205842018127441406e-01 -7.456758618354797363e-02 3.222112059593200684e-01 2.214053273200988770e-01 -9.316091239452362061e-02 -4.515935778617858887e-01 1.798768788576126099e-01 8.659043312072753906e-01 -1.358777284622192383e-01 8.803395628929138184e-01 -8.548578619956970215e-01 2.058935463428497314e-01 7.054538130760192871e-01 1.445444226264953613e-01 -8.622046560049057007e-02 3.559166491031646729e-01 3.993630111217498779e-01 1.171161890029907227e+00 -7.219851762056350708e-02 4.310865998268127441e-01 8.265315294265747070e-01 -4.973074793815612793e-01 1.989385128021240234e+00 -3.475011289119720459e-01 -1.593923568725585938e-01 1.711926102638244629e+00 -1.719607412815093994e-02 1.168200016021728516e+00 -2.607461690902709961e+00 9.504688978195190430e-01 5.587380528450012207e-01 8.480759710073471069e-02 -3.657452762126922607e-02 -1.104424893856048584e-02 8.415008187294006348e-01 2.903744935989379883e+00 -3.278294801712036133e-01 5.528873205184936523e-01 7.346917875111103058e-03 -2.175484895706176758e-01 -1.259865518659353256e-02 2.058218419551849365e-01 -4.569078087806701660e-01 -1.219321042299270630e-01 -1.528479218482971191e+00 -3.775732815265655518e-01 -5.965377688407897949e-01 1.253065347671508789e+00 -1.532157778739929199e+00 1.483182907104492188e+00 -3.216212987899780273e-02 -1.008630990982055664e+00 1.024332284927368164e+00 -7.201866507530212402e-01 -2.228401452302932739e-01 -1.595093011856079102e-01 9.731399267911911011e-02 4.529481828212738037e-01 -1.008385181427001953e+00 3.127699494361877441e-01 1.022782921791076660e+00 -2.396133691072463989e-01 -1.915531456470489502e-01 -5.743743851780891418e-02 1.547370404005050659e-01 3.928198814392089844e-01 9.627047181129455566e-02 -3.070208728313446045e-01 2.647551596164703369e-01 -4.541036486625671387e-01 3.184626996517181396e-02 9.672531485557556152e-02 -4.361976385116577148e-01 -5.996739268302917480e-01 2.937129139900207520e-01 1.058999538421630859e+00 3.366785645484924316e-01 -6.143564581871032715e-01 2.786876559257507324e-01 3.586857318878173828e-01 -4.649599194526672363e-01 -4.760160446166992188e-01 -1.452114462852478027e+00 -7.628703117370605469e-01 -3.611769974231719971e-01 3.529404997825622559e-01 2.439390420913696289e-01 -7.245104759931564331e-02 2.319739460945129395e-01 5.341494083404541016e-01 -2.875855565071105957e-01 -1.323050022125244141e+00 -6.366738080978393555e-01 4.748871028423309326e-01 6.349177956581115723e-01 4.571981132030487061e-01 -1.440502762794494629e+00 1.142394900321960449e+00 -7.972008585929870605e-01 1.743694543838500977e+00 -5.244115740060806274e-02 4.881013035774230957e-01 -9.194698929786682129e-01 1.040673702955245972e-01 8.158184289932250977e-01 -5.829954147338867188e-01 -3.395803272724151611e-02 1.581100970506668091e-01 2.339607626199722290e-01 1.506040990352630615e-01 -6.367100775241851807e-02 1.261276483535766602e+00 -4.346220195293426514e-01 -1.231693983078002930e+00 -3.817074894905090332e-01 8.517997860908508301e-01 -2.828598022460937500e-01 7.675423622131347656e-01 7.233330607414245605e-01 -2.948508262634277344e-01 5.623416900634765625e-01 3.669457137584686279e-01 1.280926823616027832e+00 3.729712963104248047e-01 -1.306098937988281250e+00 1.083729863166809082e+00 4.564805626869201660e-01 -8.563658595085144043e-01 1.175892114639282227e+00 -5.405319333076477051e-01 9.746897220611572266e-01 -1.396129280328750610e-01 -1.814203709363937378e-01 2.054696679115295410e-01 4.686438739299774170e-01 1.359869718551635742e+00 1.239757418632507324e+00 4.382013082504272461e-01 2.510893642902374268e-01 3.732311427593231201e-01 8.634774684906005859e-01 -1.526456885039806366e-02 -5.789586305618286133e-01 -6.266726255416870117e-01 8.421261906623840332e-01 -8.184958696365356445e-01 -6.786897778511047363e-03 -7.705907821655273438e-01 5.814079046249389648e-01 -8.548666238784790039e-01 3.159050047397613525e-01 -1.556091308593750000e+00 1.105853915214538574e+00 1.328002214431762695e+00 1.035369858145713806e-01 -1.267440199851989746e+00 1.690323650836944580e-01 8.436089754104614258e-01 -1.601230539381504059e-02 -4.254224002361297607e-01 -5.043442845344543457e-01 5.557339191436767578e-01 4.370454549789428711e-01 6.141296625137329102e-01 -1.832112818956375122e-01 9.145249426364898682e-02 4.019650444388389587e-02 -3.569260537624359131e-01 2.882509231567382812e-01 4.010623991489410400e-01 6.256268024444580078e-01 -6.877784132957458496e-01 3.556637167930603027e-01 1.571326516568660736e-03 -2.554003000259399414e-01 9.368921816349029541e-02 -1.155722290277481079e-01 -2.502988278865814209e-01 -7.629462480545043945e-01 1.204556748270988464e-01 -5.131291151046752930e-01 3.210410773754119873e-01 3.270617220550775528e-03 3.105308413505554199e-01 7.761839032173156738e-02 -2.426945567131042480e-01 -6.539745628833770752e-02 4.360572695732116699e-01 -1.629387438297271729e-01 3.410986065864562988e-01 -2.844170331954956055e-01 8.910659700632095337e-02 -4.844439923763275146e-01 -1.776991784572601318e-02 5.060036107897758484e-02 -3.089904487133026123e-01 -1.306525766849517822e-01 -7.248781621456146240e-02 9.866271167993545532e-02 2.820284068584442139e-01 1.117742061614990234e-01 -9.869990348815917969e-01 1.486332058906555176e+00 2.424553483724594116e-01 -2.161185264587402344e+00 4.252097606658935547e-01 -4.296817183494567871e-01 6.233666539192199707e-01 8.997374176979064941e-01 -5.770567059516906738e-02 7.777881026268005371e-01 6.884452700614929199e-01 5.960638448596000671e-02 -6.216976642608642578e-01 -2.979758083820343018e-01 3.634218871593475342e-01 -2.184935472905635834e-02 -1.872039288282394409e-01 -3.247921764850616455e-01 6.211673021316528320e-01 2.315297909080982208e-02 6.232560276985168457e-01 -3.236871361732482910e-01 -4.380972087383270264e-01 5.567771196365356445e-01 -1.191830515861511230e+00 6.663487851619720459e-02 -1.103714823722839355e+00 -2.398619353771209717e-01 1.256959080696105957e+00 -9.181371927261352539e-01 1.842693567276000977e+00 1.063744306564331055e+00 1.671909242868423462e-01 -1.148485094308853149e-01 -4.019085466861724854e-01 3.956279158592224121e-01 -2.758025825023651123e-01 -1.450079441070556641e+00 1.538836359977722168e-01 4.335136115550994873e-01 6.966968625783920288e-02 -1.432538151741027832e+00 6.988304257392883301e-01 -7.082976102828979492e-01 -7.675907760858535767e-02 1.203818321228027344e+00 -1.616517186164855957e+00 -6.912825703620910645e-01 -2.209230363368988037e-01 1.608197987079620361e-01 6.481989026069641113e-01 -5.392724648118019104e-02 -1.167538091540336609e-01 -1.201638355851173401e-01 1.001303941011428833e-01 -2.700369106605648994e-03 1.128917783498764038e-01 -4.486714303493499756e-02 1.146118715405464172e-01 1.094037760049104691e-02 -1.292705774307250977e+00 -2.674818515777587891e+00 -6.286519765853881836e-01 -5.767523646354675293e-01 -2.623437047004699707e-01 1.754811108112335205e-01 -3.163265585899353027e-01 -9.512666463851928711e-01 -1.956270337104797363e-01 4.279901087284088135e-01 -4.690261781215667725e-01 -6.523078680038452148e-01 3.956375122070312500e-01 5.410352945327758789e-01 -1.100509285926818848e+00 -2.057759016752243042e-01 -7.729254364967346191e-01 -4.699124097824096680e-01 6.280097961425781250e-01 2.414652556180953979e-01 -4.896272122859954834e-01 9.421643614768981934e-02 5.786399245262145996e-01 2.512482881546020508e+00 -4.826863408088684082e-01 -9.271251559257507324e-01 -4.026314914226531982e-01 1.802334338426589966e-01 -1.289010941982269287e-01 1.117158532142639160e-01 4.530057013034820557e-01 -3.310249652713537216e-03 5.475243330001831055e-01 9.439226239919662476e-03 9.994844198226928711e-01 4.669754579663276672e-02 -5.210668593645095825e-02 1.142662689089775085e-01 6.603776663541793823e-02 -2.978707790374755859e+00 1.601505637168884277e+00 5.756490826606750488e-01 2.614064514636993408e-01 -3.932255506515502930e-02 -4.483278095722198486e-01 4.417393356561660767e-02 6.513757705688476562e-01 -3.213436305522918701e-01 -3.291472494602203369e-01 5.201773643493652344e-01 2.102481573820114136e-01 1.331944823265075684e+00 2.998021543025970459e-01 3.114686533808708191e-02 8.797733113169670105e-03 3.475160300731658936e-01 6.235208511352539062e-01 5.190721750259399414e-01 1.068899631500244141e+00 5.021052360534667969e-01 5.321341753005981445e-01 -2.695758342742919922e-01 5.655394792556762695e-01 -5.350285172462463379e-01 -9.788667559623718262e-01 7.723447084426879883e-01 -1.085759624838829041e-01 4.048514366149902344e-01 -7.232366204261779785e-01 -1.230181813240051270e+00 3.300379216670989990e-01 5.138872265815734863e-01 -5.155042409896850586e-01 5.500248670578002930e-01 9.302637577056884766e-01 -5.079753398895263672e-01 7.149033546447753906e-01 -8.874503970146179199e-01 -7.424045801162719727e-01 -3.614776432514190674e-01 5.352547764778137207e-01 -7.418839931488037109e-01 3.114269077777862549e-01 -1.665438055992126465e+00 1.375379323959350586e+00 3.598988354206085205e-01 1.449548244476318359e+00 6.908689737319946289e-01 -1.151435256004333496e+00 -3.243960738182067871e-01 -1.570254415273666382e-01 -4.609657824039459229e-02 -3.048105537891387939e-01 -1.836482584476470947e-01 -2.804029881954193115e-01 9.088903665542602539e-01 -8.918888866901397705e-02 -1.912838667631149292e-01 -2.121487259864807129e-01 1.753988116979598999e-02 1.239146515727043152e-01 6.137803196907043457e-01 -1.240487456321716309e+00 -1.237763166427612305e+00
-3.290338441729545593e-02 6.992114782333374023e-01 -4.665837585926055908e-01 3.331969678401947021e-01 3.747609257698059082e-01 -9.128650277853012085e-02 1.145164221525192261e-01 1.442003250122070312e-01 6.383740901947021484e-01 -3.441493585705757141e-02 -1.656854867935180664e+00 -7.826695442199707031e-01 1.494978219270706177e-01 6.042452454566955566e-01 1.497323065996170044e-01 -1.156806126236915588e-01 -1.473854064941406250e+00 4.221458435058593750e-01 -3.330735564231872559e-01 -1.806040525436401367e+00 -7.376855015754699707e-01 -1.695030629634857178e-01 4.911218285560607910e-01 4.476429522037506104e-01 -2.246136188507080078e+00 1.381206870079040527e+00 -2.353253602981567383e+00 6.676280498504638672e-01 -2.268977910280227661e-01 -2.058507408946752548e-03 -3.126425445079803467e-01 -1.931181252002716064e-01 1.022080332040786743e-01 -7.325792908668518066e-01 7.731050252914428711e-01 -1.692978858947753906e+00 -2.568295598030090332e-01 1.522931218147277832e+00 9.044883847236633301e-01 1.792963892221450806e-01 -1.693950742483139038e-01 -6.062250137329101562e-01 7.521350681781768799e-02 -1.974715143442153931e-01 -3.069840669631958008e-01 9.321997165679931641e-01 1.297862082719802856e-01 7.704670429229736328e-01 -6.435111165046691895e-01 -4.677330330014228821e-02 -6.503502726554870605e-01 1.052347421646118164e+00 8.130548000335693359e-01 -1.522165089845657349e-01 1.978864967823028564e-01 -2.138592243194580078e+00 -1.526026844978332520e+00 -7.701534032821655273e-01 -8.495953083038330078e-01 -1.300062894821166992e+00 -6.996999979019165039e-01 8.014796972274780273e-01 7.934938669204711914e-01 8.124737143516540527e-01 -8.844954967498779297e-01 -5.266544818878173828e-01 7.203408479690551758e-01 -1.089623212814331055e+00 -9.296286106109619141e-02 -6.164888143539428711e-01 2.481489896774291992e+00 -2.321459352970123291e-01 -1.680159419775009155e-01 1.615439534187316895e+00 1.179894655942916870e-01 8.081902861595153809e-01 -1.458663940429687500e+00 -1.069686889648437500e+00 -4.659461081027984619e-01 -2.863021194934844971e-01 7.304452657699584961e-01 -2.170134484767913818e-01 -5.634829401969909668e-01 4.028054773807525635e-01 6.365485787391662598e-01 -7.821964025497436523e-01 -1.166535258293151855e+00 -6.137634515762329102e-01 -8.368272185325622559e-01 4.369846880435943604e-01 1.760357171297073364e-01 4.710111916065216064e-01 6.718292832374572754e-01 -2.290035247802734375e+00 -7.560431957244873047e-01 1.372984528541564941e+00 2.019802093505859375e+00 -8.284865617752075195e-01 -8.266353607177734375e-02 1.073188781738281250e+00 2.817954719066619873e-01 -7.120464444160461426e-01 5.006282329559326172e-01 -8.342252695001661777e-04 -3.573216497898101807e-02 -6.331238895654678345e-02 7.863101959228515625e-01 2.448559284210205078e+00 5.045270323753356934e-01 -2.161037921905517578e-01 -4.151390492916107178e-01 3.007439970970153809e-01 -2.999788284301757812e+00 2.774652242660522461e-01 6.492755413055419922e-01 1.123572111129760742e+00 1.834903806447982788e-01 7.746990919113159180e-01 -5.474341511726379395e-01 -1.001290380954742432e-01 6.243255734443664551e-01 -5.810950417071580887e-03 -1.546215116977691650e-01 -1.219535946846008301e+00 8.831276297569274902e-01 -1.921580791473388672e+00 1.062426120042800903e-01 -1.249622941017150879e+00 -2.132905006408691406e+00 -4.502094089984893799e-01 1.206382155418395996e+00 -9.555556178092956543e-01 -1.750792741775512695e+00 -5.863863825798034668e-01 -1.205832004547119141e+00 4.111080765724182129e-01 7.945428490638732910e-01 -2.083349525928497314e-01 -7.596221566200256348e-01 -5.218465328216552734e-01 -9.650275707244873047e-01 -8.797338232398033142e-03 1.283566653728485107e-01 -2.638779640197753906e+00 2.590823411941528320e+00 -1.329085469245910645e+00 2.716123685240745544e-02 7.682250738143920898e-01 -6.161699891090393066e-01 -2.467801421880722046e-02 6.979671120643615723e-01 2.293033152818679810e-01 -4.750328958034515381e-01 5.093396306037902832e-01 -5.708054825663566589e-02 1.808642596006393433e-01 -5.507457256317138672e-01 -1.952721953392028809e+00 1.761514246463775635e-01 -1.056466341018676758e+00 4.007851183414459229e-01 -1.266602516174316406e+00 -4.076648652553558350e-01 9.802125096321105957e-01 -5.270813032984733582e-02 -2.226518839597702026e-01 1.871896833181381226e-01 -1.677181959152221680e+00 3.472897112369537354e-01 1.436531901359558105e+00 -1.320055842399597168e+00 -4.967278838157653809e-01 -1.018758535385131836e+00 2.148352146148681641e+00 1.154595017433166504e+00 -3.610697984695434570e-01 2.885240614414215088e-01 6.494452357292175293e-01 -1.464006662368774414e+00 1.620844006538391113e-01 -1.704913973808288574e-01 -3.098215162754058838e-01 -9.519303590059280396e-02 1.122379064559936523e+00 7.783911824226379395e-01 1.222976088523864746e+00 -2.400623559951782227e+00 5.900115966796875000e-01 6.536001563072204590e-01 -1.232489109039306641e+00 -1.493605226278305054e-01 9.972023367881774902e-01 7.915912270545959473e-01 -4.145363867282867432e-01 1.501627087593078613e+00 3.734450042247772217e-02 -8.409050107002258301e-01 -6.736084818840026855e-01 6.846024841070175171e-02 -1.577448993921279907e-01 -3.370567262172698975e-01 2.362370789051055908e-01 1.102190732955932617e+00 -1.772359162569046021e-01 -7.314788699150085449e-01 1.666110754013061523e-02 -5.531728640198707581e-02 -5.321360826492309570e-01 6.368622779846191406e-01 -6.851887106895446777e-01 1.417418271303176880e-01 2.071784734725952148e+00 3.642240166664123535e-01 -3.228086829185485840e-01 -7.219503074884414673e-02 -2.657826542854309082e-01 9.084324836730957031e-01 2.601673603057861328e-01 7.969236969947814941e-01 2.268859744071960449e-02 -2.196827679872512817e-01 -1.205718815326690674e-01 -6.361063718795776367e-01 4.365722835063934326e-01 -8.321735262870788574e-02 4.821445643901824951e-01 -1.126107215881347656e+00 1.430674910545349121e+00 -1.487203221768140793e-02 -8.306051492691040039e-01 -5.582636594772338867e-01 -1.291022896766662598e-01 4.446702301502227783e-01 6.567780375480651855e-01 -4.413679242134094238e-01 -4.154923260211944580e-01 -1.177755475044250488e+00 -3.872369229793548584e-01 -2.545772790908813477e-01 2.691256105899810791e-01 5.420039892196655273e-01 2.470166832208633423e-01 -2.697169482707977295e-01 -6.732947826385498047e-01 -4.777444005012512207e-01 -9.051671624183654785e-02 -4.596011340618133545e-01 3.625044524669647217e-01 3.091216683387756348e-01 1.038571357727050781e+00 8.032948970794677734e-01 1.403678297996520996e+00 6.048623323440551758e-01 -3.443437218666076660e-01 -5.586081743240356445e-01 -2.334052622318267822e-01 1.053041592240333557e-01 3.744955658912658691e-01 8.082622885704040527e-01 -2.780041396617889404e-01 -3.779665529727935791e-01 6.487253308296203613e-01 -1.684221744537353516e+00 -2.226169109344482422e-01 -5.367229133844375610e-02 -4.677422940731048584e-01 -7.475276589393615723e-01 5.173573493957519531e-01 1.005306467413902283e-01 1.473571181297302246e+00 1.999120116233825684e-01 2.423182427883148193e-01 -1.032416224479675293e-01 -6.668927520513534546e-02 4.647942483425140381e-01 5.484728515148162842e-02 1.088239997625350952e-01 -2.923899590969085693e-01 -4.721578955650329590e-02 3.568567633628845215e-01 1.774616539478302002e-01 -3.104504346847534180e-01 -7.709812521934509277e-01 3.013060390949249268e-01 -7.595244646072387695e-01 4.103465080261230469e-01 6.197901368141174316e-01 2.642569541931152344e-01 -8.471887558698654175e-02 4.658612608909606934e-01 -4.818005561828613281e-01 2.380507290363311768e-01 6.953959912061691284e-02 -3.963689878582954407e-02 -2.279956638813018799e-01 -4.216609057039022446e-03 3.328185081481933594e-01 1.217818409204483032e-01 -1.044356346130371094e+00 -6.467095613479614258e-01 -1.373200491070747375e-02 4.939865767955780029e-01 -2.435827106237411499e-01 -7.540737092494964600e-02 1.827848702669143677e-01 -2.368294596672058105e-01 1.713110655546188354e-01 -1.185885310173034668e+00 1.589008569717407227e-01 -1.656587421894073486e-01 6.016278266906738281e-01 4.852967560291290283e-01 -6.825970411300659180e-01 3.206433057785034180e-01 -1.416019648313522339e-01 1.094446659088134766e+00 -7.796459197998046875e-01 1.769428014755249023e+00 -7.887681946158409119e-03 1.350657105445861816e+00 1.605777382850646973e+00 4.580574631690979004e-01 1.255083978176116943e-01 2.986197471618652344e-01 2.189577221870422363e-01 -2.963664233684539795e-01 -4.479206204414367676e-01 -8.361690044403076172e-01 -4.169054031372070312e-01 -5.231835246086120605e-01 9.012796282768249512e-01 -3.040679097175598145e-01 3.317684680223464966e-02 -2.656247839331626892e-02 -2.418508231639862061e-01 1.895489215850830078e+00 -5.520569682121276855e-01 1.201630830764770508e+00 -7.571487426757812500e-01 -1.113148853182792664e-01 -5.364143848419189453e-01 -6.167716383934020996e-01 -7.806383371353149414e-01 -5.506017208099365234e-01 4.287160336971282959e-01 -1.550298035144805908e-01 1.622062772512435913e-01 8.447102457284927368e-02 8.881978690624237061e-02 4.887219667434692383e-01 -8.428642153739929199e-02 9.194419384002685547e-01 -2.952356636524200439e-01 8.707914948463439941e-01 5.820000767707824707e-01 -4.899154901504516602e-01 2.686612494289875031e-02 8.057837486267089844e-01 -2.805742025375366211e-01 1.120034217834472656e+00 2.738409936428070068e-01 1.612678170204162598e-01 1.284723639488220215e+00 2.659821510314941406e-01 2.669365704059600830e-01 -1.969321012496948242e+00 -1.051956534385681152e+00 8.907586932182312012e-01 -3.178104758262634277e-01 -5.964599251747131348e-01 1.318014383316040039e+00 -9.507887810468673706e-02 1.578369438648223877e-01 4.849429801106452942e-02 2.672548592090606689e-01 1.020033732056617737e-01 -1.910232007503509521e-01 -4.725980758666992188e-01 4.764135926961898804e-02 -1.041754484176635742e+00 2.790808975696563721e-01 1.813301324844360352e+00 4.881023466587066650e-01 -9.000969529151916504e-01 -7.047188282012939453e-01 3.738533258438110352e-01 -9.889079928398132324e-01 -3.160564601421356201e-01 3.528366088867187500e-01 9.540181159973144531e-01 -2.138874977827072144e-01 -1.945641189813613892e-01 5.819074809551239014e-02 -2.902569770812988281e-01 5.682703852653503418e-01 1.339231133460998535e+00 1.282291412353515625e-01 -4.247462451457977295e-01 1.600794494152069092e-01 8.864340782165527344e-01 7.318748235702514648e-01 -1.455815136432647705e-01 2.256765216588973999e-01 -1.823380142450332642e-01 2.828156948089599609e-01 2.816725671291351318e-01 -6.825559139251708984e-01 -4.145209789276123047e-01 1.025386810302734375e+00 -1.482595801353454590e+00 8.999940752983093262e-01 -2.368001490831375122e-01 1.112382635474205017e-01 -1.188636422157287598e-01 5.107470750808715820e-01 -3.108340203762054443e-01 8.449210971593856812e-02 1.816129535436630249e-01 2.833427786827087402e-01 -3.415216803550720215e-01 -3.147647380828857422e-01 -7.348366975784301758e-01 -2.388817071914672852e-01 -2.174669951200485229e-01 -2.141055315732955933e-01 -3.329933285713195801e-01 9.648373126983642578e-01 6.531116366386413574e-01 1.028590440750122070e+00 -4.654797017574310303e-01 1.334680169820785522e-01 -6.978539824485778809e-01 2.153417095541954041e-02 -2.511731162667274475e-02 7.737426161766052246e-01 -1.124014332890510559e-01 -2.582698762416839600e-01 3.445072472095489502e-01 -1.731864213943481445e-01 1.741120219230651855e+00 1.252985954284667969e+00 -6.337820887565612793e-01 -9.094557911157608032e-02 2.314111143350601196e-01 1.976530402898788452e-01 -5.571117997169494629e-01 4.986351355910301208e-02 -6.262075901031494141e-01 6.038081645965576172e-01 9.957522898912429810e-02 -1.152101039886474609e+00 5.989179015159606934e-01 9.195756316184997559e-01 1.046505868434906006e-01 -6.525871157646179199e-01 4.096173644065856934e-01 1.789076477289199829e-01 -2.385659813880920410e-01 3.159458935260772705e-01 -1.535997629165649414e+00 1.317572116851806641e+00 -6.421021819114685059e-01 2.965541183948516846e-01 -2.417412847280502319e-01 -3.059993386268615723e-01 8.319318294525146484e-02 3.060666918754577637e-01 -3.834990784525871277e-02 -2.289834767580032349e-01 8.899410963058471680e-01 6.947223544120788574e-01 1.473566144704818726e-01 8.501043915748596191e-01 2.209919691085815430e-01 7.700505256652832031e-01 -4.712755084037780762e-01 7.178828585892915726e-03 1.966220259666442871e+00 -3.997052311897277832e-01 -1.319382190704345703e+00 -1.957787036895751953e+00 1.512682884931564331e-01 8.810604810714721680e-01 -8.457695245742797852e-01 -5.191931724548339844e-01 7.030784487724304199e-01 -3.349818289279937744e-01 -2.054229080677032471e-01 -1.424658577889204025e-02 -1.209585741162300110e-01 5.989693403244018555e-01 -1.691636800765991211e+00 -4.541396200656890869e-01 -3.647608682513237000e-02 3.415720760822296143e-01 -4.963766783475875854e-02 2.903474807739257812e+00 -1.402361989021301270e-01 -4.748647511005401611e-01 -1.501663029193878174e-01 -1.048408448696136475e-01 -7.862793207168579102e-01 3.028415143489837646e-01 -1.121211796998977661e-01 1.273894160985946655e-01 -5.139198303222656250e-01 2.121046930551528931e-01 2.033351808786392212e-01 -1.926039159297943115e-01 -1.818170994520187378e-01 -1.323861032724380493e-01 3.572326600551605225e-01 5.621202588081359863e-01 2.264457941055297852e-01 -1.423774123191833496e+00 3.867767155170440674e-01 1.918588042259216309e+00 7.502427697181701660e-02 1.789760351181030273e+00 1.941023468971252441e-01 -3.543519973754882812e-01 4.316224157810211182e-01 -6.871221661567687988e-01 6.474294662475585938e-01 1.128071546554565430e+00 9.469269961118698120e-02 3.578564226627349854e-01 3.553012609481811523e-01 -1.734975218772888184e+00 -2.308896929025650024e-01 4.310202598571777344e-01 -9.029971361160278320e-01 1.086584210395812988e+00 4.943357110023498535e-01 -2.298252582550048828e-01 5.566284060478210449e-01 -4.464016109704971313e-02 1.487743109464645386e-01 -2.913013696670532227e-01 -4.366684332489967346e-02 1.600804775953292847e-01 1.446394681930541992e+00 1.826084852218627930e-01 2.972678653895854950e-02 -2.719913423061370850e-02 9.633152186870574951e-02 2.322631776332855225e-01 -4.169604182243347168e-01 1.622448414564132690e-01 -5.118474960327148438e-01 1.236834302544593811e-01 2.850962579250335693e-01 -5.294209718704223633e-01 -1.491383790969848633e+00 1.264586765319108963e-02 1.981353759765625000e-02 8.394908905029296875e-01 -4.248470366001129150e-01 -4.129217267036437988e-01 -1.493492126464843750e-01 5.290970206260681152e-02 1.410692334175109863e-01 7.393875718116760254e-02 1.458854228258132935e-01 -3.610245510935783386e-02 2.694911956787109375e-01 5.750580690801143646e-03 -1.297481536865234375e+00 -3.181663155555725098e-01 -2.643911540508270264e-01 1.974566102027893066e+00 5.422353744506835938e-01 -1.083966851234436035e+00 -3.806461691856384277e-01 -3.252836167812347412e-01 4.770116135478019714e-02