1_62/init_sr.lmp (written by ASE) 

188 	 atoms 
4  atom types
0.0              12.0970716  xlo xhi
0.0              12.0970716  ylo yhi
0.0              12.0970716  zlo zhi


Atoms 

     1   1      2.3672200000000001                 1.03312                 10.5656
     2   1      7.1600200000000003                  2.3889                 1.45855
     3   1      6.9829699999999999                  10.161                 1.30026
     4   1      6.0783800000000001                 6.54101     0.65995400000000004
     5   1      2.6490499999999999      3.6500900000000001      7.8762999999999996
     6   1      10.602499999999999      8.5036900000000006      4.6329599999999997
     7   1                 1.66316      8.4639500000000005                 11.5768
     8   1                 10.8592                 1.19878      4.5288899999999996
     9   1      4.2202700000000002      8.3314199999999996      1.3889199999999999
    10   1     0.97704899999999995                 3.24715      3.9202699999999999
    11   1      3.8261799999999999                 11.4474      9.0791299999999993
    12   1      4.3733599999999999      5.4088200000000004                 2.77122
    13   1      8.4077000000000002                 1.43642      9.0910600000000006
    14   1      11.121700000000001      5.6838300000000004      3.7421099999999998
    15   1      4.7744600000000004                 1.53241      4.8214300000000003
    16   1                 10.9411      6.2280199999999999                 10.8551
    17   1                 12.0702      7.7233200000000002      6.6174999999999997
    18   1      2.0847000000000002      6.7711199999999998      2.0746500000000001
    19   1                 3.02542     0.34281099999999998      1.3661300000000001
    20   1                 3.38361      7.8751899999999999      5.4108299999999998
    21   1      3.3264399999999998      2.4338199999999999      2.8112300000000001
    22   1      5.5414700000000003      3.8651300000000002      11.863300000000001
    23   1      11.616899999999999     0.78476299999999999      9.7997099999999993
    24   1      3.7423000000000002      6.3894099999999998      10.821199999999999
    25   1      11.315099999999999      11.747999999999999     0.22605800000000001
    26   1      10.095800000000001      9.3722499999999993                 9.17577
    27   1      5.0124599999999999      2.5967899999999999      7.4190500000000004
    28   1      2.5148299999999999                 5.28268      5.5663200000000002
    29   1      8.5595199999999991      6.5515699999999999      2.3597999999999999
    30   1                 4.04453      9.8776499999999992                 11.1021
    31   1      2.6941799999999998      3.6890499999999999      10.700699999999999
    32   1                 11.8718      8.5280199999999997                 1.59267
    33   1     0.38921800000000001      8.1290600000000008      9.3945100000000004
    34   1      5.5522900000000002     0.22017800000000001      2.0144799999999998
    35   1      5.3353700000000002                 5.37765                 7.47431
    36   1      8.6976700000000005                 11.1477                 10.6035
    37   1      9.1979900000000008      7.9268000000000001     0.13612840000000001
    38   1      6.3622199999999998                 10.7033      7.7399500000000003
    39   1      9.7002799999999993                 2.08724     0.45583499999999999
    40   1      5.8331099999999996     0.72024699999999997      10.220499999999999
    41   1                 7.98353      7.8334700000000002      4.8994299999999997
    42   1      8.1463300000000007    0.045128399999999999      6.5964200000000002
    43   1                 1.01891                 8.66249      4.2407399999999997
    44   1    0.056328400000000001                 5.26851      7.5711199999999996
    45   1      3.1543899999999998      6.6391900000000001      8.1747099999999993
    46   1      5.3991400000000001      8.7830300000000001      4.0134299999999996
    47   1      9.3517899999999994      10.909599999999999      1.9649799999999999
    48   1     0.69621699999999997                 11.6717      3.1628599999999998
    49   1      8.4270399999999999     0.68754300000000002      3.8178100000000001
    50   1      9.6117100000000004      3.4186000000000001      5.7990500000000003
    51   1      8.3521999999999998      4.0855399999999999      3.4360599999999999
    52   1      7.0478100000000001                 6.49892      9.3302200000000006
    53   1     0.95018599999999998                 12.0603      5.9589499999999997
    54   1      2.5751499999999998      9.9511599999999998      7.1323999999999996
    55   1      7.7874699999999999      8.4617699999999996                 7.61409
    56   1      4.6516299999999999                 10.8965      5.7288399999999999
    57   1      6.0677700000000003      5.6327800000000003      4.7605500000000003
    58   1      6.4868100000000002      9.0106900000000003                 10.7119
    59   1                 11.4474                 3.99105      1.8491599999999999
    60   1                 10.6004      11.481999999999999      7.4261999999999997
    61   1     0.97489400000000004      5.1014499999999998    0.099028400000000003
    62   1     0.68689299999999998      2.4787499999999998      6.4755099999999999
    63   2                 1.51115     0.67340199999999995      10.263299999999999
    64   2      2.9908199999999998                0.675682      9.9005500000000008
    65   2                 6.62296                 2.96292     0.94254099999999996
    66   2                 7.95817      2.1945700000000001     0.85202699999999998
    67   2      7.9519500000000001                 10.2454      1.4581500000000001
    68   2      6.8853600000000004      9.7263099999999998     0.48232799999999998
    69   2      6.8179499999999997      6.5793100000000004      1.3127599999999999
    70   2      5.3829799999999999                 7.25129     0.94938900000000004
    71   2      2.6286299999999998      4.4620199999999999      7.3170000000000002
    72   2                 3.47803      3.1492300000000002      7.6453600000000002
    73   2      11.146000000000001      8.4022299999999994      5.4078499999999998
    74   2      9.7341999999999995      8.1626300000000001      4.8616599999999996
    75   2      1.1058699999999999      8.5597700000000003                 10.8102
    76   2                 2.25759      7.7315699999999996      11.366199999999999
    77   2      11.473000000000001                0.464173      4.5518999999999998
    78   2      11.305099999999999      1.8815900000000001                 4.02963
    79   2      4.1271599999999999                 9.12669     0.90326700000000004
    80   2                 3.33731      7.9357600000000001      1.4946200000000001
    81   2      1.7855700000000001      2.8583099999999999                 3.50163
    82   2     0.44598700000000002                 3.59294      3.1551399999999998
    83   2      4.7942099999999996      11.532299999999999      8.9603800000000007
    84   2      3.5495199999999998                 10.8651      8.3441100000000006
    85   2      4.7502300000000002      5.8770499999999997      2.0485699999999998
    86   2      3.4578199999999999      5.8281200000000002      2.6806999999999999
    87   2      8.4125899999999998     0.96481399999999995      8.2264900000000001
    88   2      8.9092599999999997      2.2732299999999999      8.9061500000000002
    89   2                 10.6509      6.5376700000000003      3.9222999999999999
    90   2      10.928599999999999      5.1411199999999999      4.4721299999999999
    91   2      5.5714800000000002                 1.36941      4.3460799999999997
    92   2      4.2302400000000002                 1.91943      4.1810099999999997
    93   2                 10.2059      6.7375800000000003      11.258599999999999
    94   2                 10.5029                 5.73794      10.151300000000001
    95   2               0.1149284      8.1135400000000004      7.4867299999999997
    96   2                 12.0571      6.7379100000000003      6.8992000000000004
    97   2      1.7236800000000001      6.3258700000000001                 1.28592
    98   2      1.3429599999999999      7.1881399999999998      2.5311900000000001
    99   2                 4.06412               0.0873284      1.5308900000000001
   100   2      2.7679499999999999                0.211675     0.42477199999999998
   101   2                 4.21448      8.2381499999999992      4.9732099999999999
   102   2                 3.60351      7.8750200000000001      6.3393600000000001
   103   2      3.6943100000000002                 3.16493      2.3345799999999999
   104   2                 3.23705                 1.72542      2.1590600000000002
   105   2      4.7545000000000002      3.7406600000000001                 11.3535
   106   2      5.8538699999999997      4.8045099999999996      11.755000000000001
   107   2      11.177899999999999                0.203238                 9.10806
   108   2                 11.3162                 1.64361      9.6669199999999993
   109   2      3.4737800000000001      5.5375800000000002                 11.1556
   110   2      4.6727800000000004      6.5844500000000004                 10.9435
   111   2                 10.9985     0.51608900000000002      12.095599999999999
   112   2      11.467499999999999                 11.4551      11.376099999999999
   113   2      9.3140000000000001      8.9184900000000003      8.7883499999999994
   114   2      9.6484199999999998      9.9973100000000006      9.8750300000000006
   115   2      5.2927200000000001      3.5523699999999998      7.4775099999999997
   116   2      5.0533999999999999      2.4479600000000001      6.4246299999999996
   117   2      2.1922199999999998      4.7028499999999998      4.8508500000000003
   118   2      2.8672800000000001      6.0555599999999998      5.0964400000000003
   119   2      8.2768899999999999      7.2251599999999998      3.0329999999999999
   120   2      8.4352800000000006      5.6646099999999997      2.7479800000000001
   121   2      3.9590399999999999      10.406000000000001      10.307499999999999
   122   2      3.1289799999999999      9.5580200000000008                 11.2309
   123   2                 2.64255      2.6819500000000001      10.768700000000001
   124   2      2.7665899999999999                 3.89716      9.7127199999999991
   125   2      10.986700000000001      8.3395200000000003                 1.22387
   126   2     0.33987899999999999      8.5875299999999992     0.78788599999999998
   127   2                 11.5724      8.5434199999999993      9.4817699999999991
   128   2    0.033128400000000002      7.1878099999999998      9.5884999999999998
   129   2                 6.09476      11.519299999999999                 1.68421
   130   2      6.1492399999999998     0.96148599999999995      1.6220600000000001
   131   2      5.5643399999999996      5.6546799999999999      6.5840899999999998
   132   2      4.4570299999999996      5.7848600000000001      7.6463200000000002
   133   2      7.7191900000000002                 11.0616                 10.4657
   134   2      8.8739899999999992                 12.0709                 10.2996
   135   2      8.8939400000000006      7.4965799999999998     0.96135800000000005
   136   2      8.6299499999999991      8.6389099999999992                 11.9673
   137   2      7.1383200000000002                 11.2666      7.5102200000000003
   138   2      5.8033700000000001      10.935499999999999      6.9847000000000001
   139   2                 10.2981                 2.77169     0.85161299999999995
   140   2      9.4429999999999996      2.4472900000000002      11.681699999999999
   141   2      5.4179300000000001      1.5372300000000001      10.563000000000001
   142   2      6.6401899999999996      1.0640799999999999      9.8059399999999997
   143   2      7.2309900000000003      7.1732800000000001      4.8766699999999998
   144   2      7.8825799999999999      8.0505899999999997      5.8674200000000001
   145   2      8.9802099999999996                 11.6486                 6.73217
   146   2      7.9781599999999999     0.13862840000000001      5.6384499999999997
   147   2                 2.00115      8.5827000000000009      4.3342900000000002
   148   2     0.65168899999999996      8.1694200000000006      5.0217000000000001
   149   2                 11.2493      4.9654400000000001                  7.7016
   150   2     0.54497499999999999      4.5166500000000003      7.1692799999999997
   151   2      3.2910400000000002      6.5580100000000003      9.1624400000000001
   152   2      2.2187899999999998      6.4312699999999996      8.0263899999999992
   153   2      6.3281400000000003      8.9014600000000002      4.1245700000000003
   154   2      5.0836699999999997      8.9522399999999998      3.0810499999999998
   155   2      9.6264099999999999      11.412599999999999      1.1704600000000001
   156   2                 9.07118      11.614599999999999      2.5666699999999998
   157   2                  1.4716                 11.9589      2.4851299999999998
   158   2                 1.14384      11.549300000000001                 3.99335
   159   2      8.0475399999999997      1.4164600000000001      3.3027899999999999
   160   2      9.2790900000000001     0.99609099999999995      4.1585700000000001
   161   2      9.4453300000000002      3.8544499999999999                 6.66988
   162   2                 10.4443      3.0081000000000002      5.9981900000000001
   163   2      8.7267499999999991      3.6493000000000002                 4.31325
   164   2                 8.03172      3.4246300000000001      2.7749000000000001
   165   2      7.6978299999999997                 5.75901      9.2585499999999996
   166   2                 6.23454      6.0703800000000001      8.9294700000000002
   167   2     0.90206200000000003     0.95469400000000004      6.0317499999999997
   168   2      1.5439499999999999                 11.6713      6.6262299999999996
   169   2                 2.07226      9.1404300000000003      7.0228700000000002
   170   2      3.2071800000000001      9.8234999999999992                 6.38347
   171   2      7.2273300000000003      9.3431800000000003      7.6241000000000003
   172   2      7.2506000000000004      7.7563599999999999      8.0682600000000004
   173   2      5.0801400000000001                 10.5307                 4.92781
   174   2      4.5054999999999996                 11.8767      5.6926199999999998
   175   2      5.4071400000000001      5.7363499999999998      4.0319700000000003
   176   2      6.5620599999999998      4.8288200000000003      4.4901099999999996
   177   2      6.3922499999999998      8.1071299999999997                 10.4255
   178   2                 5.52827      9.3522099999999995      10.855499999999999
   179   2                 10.9847      4.6268799999999999      2.4652699999999999
   180   2      12.055199999999999      4.4498499999999996                 1.25387
   181   2                  11.381                 11.4162                 6.89581
   182   2      10.518800000000001                 10.5999      7.9198199999999996
   183   2     0.25292599999999998      5.5561800000000003                 11.7524
   184   2      1.5219800000000001      4.6070000000000002      11.501899999999999
   185   2      1.0080199999999999      2.7392099999999999                 5.60243
   186   2      1.4816499999999999                 2.61714      7.0661199999999997
   187   3                 11.3918                  10.003      3.0317400000000001
   188   4      9.7772400000000008      4.1602100000000002      8.9131900000000002
