LAMMPS (2 Aug 2023)
units metal
atom_style atomic
read_data init.lmp
Reading data file ...
  orthogonal box = (0 0 0) to (12.097072 12.097072 12.097072)
  1 by 1 by 1 MPI processor grid
  reading atoms ...
  188 atoms
  read_data CPU = 0.020 seconds

pair_style deepmd  "../graph_000.pb" "../graph_001.pb" "../graph_002.pb" "../graph_003.pb" out_file md.out out_freq 100
Summary of lammps deepmd module ...
  >>> Info of deepmd-kit:
  installed to:       /leonardo/home/userexternal/cmalosso/deepmd/deepmd_root
  source:             v2.2.3
  source branch:       master
  source commit:      53a1078c
  source commit at:   2023-08-08 11:52:54 +0800
  surpport model ver.:1.1 
  build variant:      cuda
  build with tf inc:  /leonardo/home/userexternal/cmalosso/deepmd/venv_v2.2.3/lib/python3.10/site-packages/tensorflow/include;/leonardo/home/userexternal/cmalosso/deepmd/venv_v2.2.3/lib/python3.10/site-packages/tensorflow/include
  build with tf lib:  /leonardo/home/userexternal/cmalosso/deepmd/venv_v2.2.3/lib/python3.10/site-packages/tensorflow/libtensorflow_cc.so.2
  set tf intra_op_parallelism_threads: 0
  set tf inter_op_parallelism_threads: 0
  >>> Info of lammps module:
  use deepmd-kit at:  /leonardo/home/userexternal/cmalosso/deepmd/deepmd_root
  source:             v2.2.3
  source branch:      master
  source commit:      53a1078c
  source commit at:   2023-08-08 11:52:54 +0800
  build float prec:   double
  build with tf inc:  /leonardo/home/userexternal/cmalosso/deepmd/venv_v2.2.3/lib/python3.10/site-packages/tensorflow/include;/leonardo/home/userexternal/cmalosso/deepmd/venv_v2.2.3/lib/python3.10/site-packages/tensorflow/include
  build with tf lib:  /leonardo/home/userexternal/cmalosso/deepmd/venv_v2.2.3/lib/python3.10/site-packages/tensorflow/libtensorflow_cc.so.2
pair_coeff * *

mass 1 15.999  # O
mass 2 1.00794 # H
mass 3 22.9898 # Na
mass 4 35.45   # Cl


neighbor        2.0 bin
neigh_modify    every 10 delay 0 check no

timestep 0.2e-3

thermo 50
thermo_style custom step time ke pe etotal temp press density vol

velocity all create 500 87234 rot yes dist gaussian

fix 		1 all npt temp 800.0 800.0 0.02 iso 1.0 1.0 0.2

run             50000

CITE-CITE-CITE-CITE-CITE-CITE-CITE-CITE-CITE-CITE-CITE-CITE-CITE

Your simulation uses code contributions which should be cited:

- USER-DEEPMD package:

@article{Wang_ComputPhysCommun_2018_v228_p178,
  author = {Wang, Han and Zhang, Linfeng and Han, Jiequn and E, Weinan},
  doi = {10.1016/j.cpc.2018.03.016},
  url = {https://doi.org/10.1016/j.cpc.2018.03.016},
  year = 2018,
  month = {jul},
  publisher = {Elsevier {BV}},
  volume = 228,
  journal = {Comput. Phys. Commun.},
  title = {{DeePMD-kit: A deep learning package for many-body potential energy representation and molecular dynamics}},
  pages = {178--184}
}
@misc{Zeng_JChemPhys_2023_v159_p054801,
  title  = {{DeePMD-kit v2: A software package for deep potential models}},
  author =   {Jinzhe Zeng and Duo Zhang and Denghui Lu and Pinghui Mo and Zeyu Li
         and Yixiao Chen and Mari{\'a}n Rynik and Li'ang Huang and Ziyao Li and 
         Shaochen Shi and Yingze Wang and Haotian Ye and Ping Tuo and Jiabin
         Yang and Ye Ding and Yifan Li and Davide Tisi and Qiyu Zeng and Han 
         Bao and Yu Xia and Jiameng Huang and Koki Muraoka and Yibo Wang and 
         Junhan Chang and Fengbo Yuan and Sigbj{\o}rn L{\o}land Bore and Chun
         Cai and Yinnian Lin and Bo Wang and Jiayan Xu and Jia-Xin Zhu and 
         Chenxing Luo and Yuzhi Zhang and Rhys E A Goodall and Wenshuo Liang
         and Anurag Kumar Singh and Sikai Yao and Jingchao Zhang and Renata
         Wentzcovitch and Jiequn Han and Jie Liu and Weile Jia and Darrin M
         York and Weinan E and Roberto Car and Linfeng Zhang and Han Wang},
  journal =  {J. Chem. Phys.},
  volume =   159,
  issue =    5,  
  year =    2023,
  pages  =   054801,
  doi =      {10.1063/5.0155600},
}

CITE-CITE-CITE-CITE-CITE-CITE-CITE-CITE-CITE-CITE-CITE-CITE-CITE

Generated 0 of 6 mixed pair_coeff terms from geometric mixing rule
Neighbor list info ...
  update: every = 10 steps, delay = 0 steps, check = no
  max neighbors/atom: 2000, page size: 100000
  master list distance cutoff = 8
  ghost atom cutoff = 8
  binsize = 4, bins = 4 4 4
  1 neighbor lists, perpetual/occasional/extra = 1 0 0
  (1) pair deepmd, perpetual
      attributes: full, newton on
      pair build: full/bin/atomonly
      stencil: full/bin/3d
      bin: standard
Per MPI rank memory allocation (min/avg/max) = 2.753 | 2.753 | 2.753 Mbytes
   Step          Time          KinEng         PotEng         TotEng          Temp          Press         Density         Volume    
         0   0              12.085824     -30554.94      -30542.854      500            1657.3982      1.1025038      1770.2751    
        50   0.01           12.062136     -30553.839     -30541.777      499.02003     -571.19846      1.1011515      1772.449     
       100   0.02           11.297378     -30551.577     -30540.279      467.38138     -810.87847      1.0970084      1779.1432    
       150   0.03           12.662055     -30551.101     -30538.439      523.83916     -3038.6073      1.0896592      1791.1425    
       200   0.04           13.600797     -30549.843     -30536.242      562.67563     -1597.2535      1.080066       1807.0515    
       250   0.05           14.316342     -30548.291     -30533.975      592.27831      100.40216      1.068147       1827.2156    
       300   0.06           15.696225     -30547.333     -30531.637      649.36516      872.10929      1.0535259      1852.5743    
       350   0.07           17.016696     -30546.205     -30529.188      703.99408      866.72539      1.0366763      1882.685     
       400   0.08           17.17045      -30544.006     -30526.836      710.355        2228.5968      1.0186234      1916.0516    
       450   0.09           18.167903     -30542.733     -30524.565      751.6204      -132.65225      0.99990527     1951.9198    
       500   0.1            19.124507     -30541.672     -30522.547      791.19584     -259.17221      0.98208022     1987.3478    
       550   0.11           21.006893     -30541.824     -30520.818      869.07166     -2042.5934      0.96591325     2020.611     
       600   0.12           20.1538       -30539.996     -30519.842      833.77853      1587.6677      0.95260578     2048.838     
       650   0.13           20.593583     -30539.846     -30519.253      851.97267      2386.959       0.94101026     2074.0847    
       700   0.14           19.7616       -30538.656     -30518.895      817.5529       4789.6008      0.9307985      2096.8394    
       750   0.15           18.620905     -30537.176     -30518.555      770.36142      5886.7954      0.92114115     2118.8229    
       800   0.16           18.913862     -30536.799     -30517.885      782.48129      1813.8532      0.91137447     2141.5291    
       850   0.17           20.406388     -30537.462     -30517.056      844.22828      311.1638       0.9021804      2163.3533    
       900   0.18           20.716803     -30537.249     -30516.533      857.0704       249.50816      0.89312102     2185.2973    
       950   0.19           20.474894     -30536.923     -30516.448      847.06242      1345.8109      0.88405723     2207.702     
      1000   0.2            19.674754     -30536.421     -30516.746      813.96         1155.1621      0.87433328     2232.2551    
      1050   0.21           18.69628      -30535.838     -30517.142      773.47975      1217.564       0.86390267     2259.207     
      1100   0.22           19.333079     -30536.634     -30517.301      799.82462     -914.98638      0.8531901      2287.5734    
      1150   0.23           19.841172     -30537.066     -30517.225      820.84485     -3009.3739      0.84290852     2315.4766    
      1200   0.24           19.781716     -30536.755     -30516.974      818.3851      -5552.1516      0.83353031     2341.5285    
      1250   0.25           19.636339     -30536.34      -30516.704      812.37073     -6350.2758      0.82554753     2364.1703    
      1300   0.26           19.568787     -30536.061     -30516.492      809.57608     -6163.7797      0.81943025     2381.8195    
      1350   0.27           19.89576      -30536.142     -30516.247      823.10322     -3391.9056      0.81498021     2394.825     
      1400   0.28           20.692207     -30536.725     -30516.033      856.05282     -1789.6127      0.81203781     2403.5026    
      1450   0.29           20.685281     -30536.865     -30516.18       855.76629      1801.4811      0.81088671     2406.9145    
      1500   0.3            20.894935     -30537.917     -30517.022      864.43986      5512.6151      0.81142657     2405.3131    
      1550   0.31           18.923869     -30537.4       -30518.476      782.89528      6684.6603      0.81340763     2399.4549    
      1600   0.32           17.353123     -30536.634     -30519.281      717.91233      5941.5436      0.81606868     2391.6307    
      1650   0.33           18.221595     -30537.369     -30519.148      753.84169      334.96164      0.81813131     2385.6011    
      1700   0.34           18.615712     -30537.152     -30518.536      770.14662     -4539.1193      0.81947332     2381.6943    
      1750   0.35           19.22223      -30536.977     -30517.755      795.23872     -8452.2112      0.82012389     2379.805     
      1800   0.36           19.856909     -30536.942     -30517.085      821.49591     -10111.93       0.82036506     2379.1054    
      1850   0.37           20.142692     -30536.865     -30516.723      833.31896     -10032.462      0.82051027     2378.6843    
      1900   0.38           19.058239     -30535.72      -30516.662      788.45431     -4444.8636      0.82096758     2377.3594    
      1950   0.39           18.777235     -30535.455     -30516.678      776.82892      957.02567      0.82157549     2375.6003    
      2000   0.4            19.775708     -30536.29      -30516.514      818.13655      3955.9111      0.82227599     2373.5765    
      2050   0.41           21.44927      -30537.525     -30516.076      887.3731       5611.6111      0.82326176     2370.7344    
      2100   0.42           21.084907     -30536.915     -30515.83       872.29915      5833.3675      0.82529016     2364.9076    
      2150   0.43           19.216474     -30535.243     -30516.026      795.00061      4370.0402      0.82817504     2356.6696    
      2200   0.44           18.590965     -30534.831     -30516.24       769.12282      1371.4946      0.83115704     2348.2144    
      2250   0.45           18.88328      -30535.153     -30516.269      781.21609     -191.05105      0.83421332     2339.6113    
      2300   0.46           18.903191     -30535.098     -30516.195      782.03984      1747.2452      0.83763793     2330.046     
      2350   0.47           20.854662     -30536.703     -30515.849      862.77374      3142.9157      0.84129912     2319.9061    
      2400   0.48           20.890491     -30536.546     -30515.656      864.25598      8395.3068      0.84571059     2307.8048    
      2450   0.49           18.863173     -30534.956     -30516.093      780.38425      11901.717      0.85031401     2295.3108    
      2500   0.5            17.279317     -30534.153     -30516.874      714.85891      9297.8963      0.85429518     2284.6143    
      2550   0.51           19.062392     -30536.601     -30517.538      788.62612      2526.5975      0.85778006     2275.3326    
      2600   0.52           19.325634     -30537.477     -30518.151      799.51665      251.48976      0.86127696     2266.0945    
      2650   0.53           18.38132      -30537.07      -30518.688      760.44962     -1686.5888      0.86478595     2256.8995    
      2700   0.54           16.451955     -30535.737     -30519.285      680.63029      680.15132      0.86928766     2245.2118    
      2750   0.55           17.34962      -30536.77      -30519.42       717.76739      2323.6791      0.8743727      2232.1545    
      2800   0.56           18.462001     -30537.159     -30518.697      763.78745      6037.2292      0.88001485     2217.8432    
      2850   0.57           18.932336     -30536.141     -30517.208      783.24557      8999.8307      0.88628363     2202.1561    
      2900   0.58           19.504931     -30535.461     -30515.956      806.9343       8573.2672      0.89245467     2186.9289    
      2950   0.59           20.896567     -30536.332     -30515.436      864.50737      5532.8109      0.89824345     2172.8352    
      3000   0.6            18.999773     -30534.644     -30515.644      786.03551      1276.7959      0.90333341     2160.592     
      3050   0.61           19.690676     -30535.643     -30515.953      814.6187      -3279.1862      0.90623393     2153.6768    
      3100   0.62           19.966104     -30536.818     -30516.852      826.0134      -6402.7252      0.90642949     2153.2121    
      3150   0.63           16.803952     -30535.179     -30518.375      695.19267     -2331.7021      0.90413928     2158.6662    
      3200   0.64           16.231617     -30535.19      -30518.959      671.51473      2355.1112      0.89872215     2171.6778    
      3250   0.65           16.837181     -30535.512     -30518.675      696.5674       5762.5228      0.89064156     2191.381     
      3300   0.66           17.658542     -30535.716     -30518.057      730.54772      8485.9951      0.88076971     2215.9424    
      3350   0.67           19.311291     -30536.575     -30517.264      798.92324      5157.5341      0.86990214     2243.6259    
      3400   0.68           19.994795     -30536.538     -30516.543      827.20035      543.27032      0.85946037     2270.8842    
      3450   0.69           20.110211     -30536.146     -30516.036      831.9752      -1609.9933      0.85024602     2295.4944    
      3500   0.7            19.503818     -30535.423     -30515.92       806.88825     -1373.8913      0.84255641     2316.4442    
      3550   0.71           17.592471     -30533.808     -30516.215      727.81431      2320.6461      0.83645609     2333.3382    
      3600   0.72           18.042735     -30534.619     -30516.577      746.4421       3849.1919      0.83155921     2347.0787    
      3650   0.73           19.409414     -30536.256     -30516.846      802.98268      4483.6712      0.82775313     2357.8708    
      3700   0.74           18.627388     -30535.823     -30517.195      770.62966      3406.4828      0.82510459     2365.4395    
      3750   0.75           16.795542     -30534.36      -30517.564      694.84476      3567.2444      0.8237452      2369.343     
      3800   0.76           18.391911     -30535.76      -30517.368      760.8878      -1069.7571      0.82281242     2372.029     
      3850   0.77           20.099367     -30536.504     -30516.404      831.52657     -4496.6354      0.82204942     2374.2307    
      3900   0.78           20.419581     -30535.604     -30515.185      844.77407     -1617.5688      0.82156352     2375.6349    
      3950   0.79           20.636509     -30534.908     -30514.272      853.74857      2327.9997      0.82050295     2378.7056    
      4000   0.8            19.889968     -30533.831     -30513.941      822.86358      4898.0772      0.81852766     2384.4459    
      4050   0.81           19.344926     -30533.577     -30514.232      800.31475      4149.3068      0.81574984     2392.5655    
      4100   0.82           19.628917     -30534.703     -30515.074      812.06371     -41.135354      0.81225735     2402.8529    
      4150   0.83           18.716507     -30535.222     -30516.506      774.31659     -1199.9274      0.80876518     2413.2282    
      4200   0.84           17.554062     -30535.168     -30517.614      726.22532      1834.6691      0.80547527     2423.0849    
      4250   0.85           17.289578     -30535.144     -30517.855      715.28341      1716.021       0.80211333     2433.2409    
      4300   0.86           17.754624     -30535.38      -30517.625      734.5227       939.66432      0.79904155     2442.5951    
      4350   0.87           18.740051     -30536.125     -30517.385      775.29063     -145.19842      0.79648762     2450.4272    
      4400   0.88           19.573061     -30536.859     -30517.286      809.75289     -2796.8252      0.79483114     2455.5341    
      4450   0.89           20.08938      -30537.305     -30517.215      831.11341     -1306.1767      0.79433109     2457.0799    
      4500   0.9            19.670786     -30536.799     -30517.128      813.79585      3327.1035      0.79442958     2456.7753    
      4550   0.91           20.840081     -30537.779     -30516.939      862.17048      7199.4476      0.79403434     2457.9982    
      4600   0.92           19.702551     -30536.641     -30516.939      815.11001      10320.716      0.79240733     2463.0451    
      4650   0.93           20.326018     -30537.137     -30516.811      840.90333      5966.1497      0.78847665     2475.3237    
      4700   0.94           19.406066     -30536.038     -30516.632      802.84416      4108.4689      0.78292505     2492.8758    
      4750   0.95           21.111672     -30537.227     -30516.115      873.40642     -652.68623      0.77598994     2515.155     
      4800   0.96           20.116296     -30535.75      -30515.634      832.22693     -4468.4108      0.76880804     2538.6505    
      4850   0.97           19.442481     -30534.902     -30515.459      804.35067     -6331.625       0.76188356     2561.7234    
      4900   0.98           19.083157     -30534.604     -30515.521      789.48517     -6229.2983      0.75506696     2584.8501    
      4950   0.99           19.898875     -30535.633     -30515.734      823.23205     -5426.729       0.74845849     2607.6729    
      5000   1              18.912964     -30535.122     -30516.209      782.44417     -1244.5753      0.74279179     2627.5667    
      5050   1.01           19.135396     -30535.667     -30516.532      791.64633      1347.8769      0.738173       2644.0075    
      5100   1.02           18.31738      -30534.869     -30516.552      757.80439      1358.8167      0.73485515     2655.9451    
      5150   1.03           18.489513     -30534.449     -30515.959      764.92564      84.414274      0.73284371     2663.2349    
      5200   1.04           19.699283     -30534.286     -30514.587      814.97479     -4158.8072      0.73164221     2667.6085    
      5250   1.05           20.280398     -30533.645     -30513.365      839.01596     -6063.2219      0.73132505     2668.7653    
      5300   1.06           19.319776     -30532.208     -30512.889      799.27428     -5654.3292      0.73155623     2667.922     
      5350   1.07           19.648151     -30532.507     -30512.859      812.85941     -5587.5072      0.73183106     2666.9201    
      5400   1.08           19.073144     -30532.503     -30513.43       789.07093     -6692.5357      0.73252788     2664.3832    
      5450   1.09           19.115696     -30533.547     -30514.431      790.83133     -6690.0958      0.73395821     2659.1908    
      5500   1.1            18.946549     -30534.411     -30515.464      783.83359     -7494.9211      0.73553218     2653.5004    
      5550   1.11           17.495151     -30533.701     -30516.206      723.78813     -6960.8861      0.73687846     2648.6525    
      5600   1.12           17.068097     -30533.901     -30516.833      706.12057     -5958.0953      0.73810405     2644.2545    
      5650   1.13           16.78454      -30534.929     -30518.144      694.3896      -6492.6098      0.7393835      2639.6788    
      5700   1.14           17.908479     -30537.542     -30519.634      740.88783     -6870.8606      0.74118055     2633.2787    
      5750   1.15           17.71605      -30538.028     -30520.312      732.92688     -4763.5044      0.74443595     2621.7634    
      5800   1.16           17.73819      -30537.885     -30520.147      733.84283      639.35974      0.74964113     2603.559     
      5850   1.17           18.056205     -30537.264     -30519.208      746.99936      6864.291       0.75685056     2578.7587    
      5900   1.18           17.536535     -30535.348     -30517.812      725.5002       11944.698      0.76575111     2548.785     
      5950   1.19           19.366255     -30536.022     -30516.655      801.19717      10473.728      0.77494312     2518.5525    
      6000   1.2            18.944896     -30535.09      -30516.145      783.76522      8874.4794      0.78423306     2488.718     
      6050   1.21           19.753744     -30535.62      -30515.867      817.22789      3765.1238      0.79257048     2462.538     
      6100   1.22           20.061138     -30535.792     -30515.731      829.94503      881.30924      0.79860083     2443.943     
      6150   1.23           20.035823     -30535.767     -30515.731      828.8977      -594.41117      0.80059251     2437.8631    
      6200   1.24           19.88466      -30536.2       -30516.315      822.64397      673.24628      0.79856214     2444.0615    
      6250   1.25           18.248631     -30535.891     -30517.643      754.96016      2798.9664      0.79280591     2461.8068    
      6300   1.26           18.265409     -30537.087     -30518.822      755.65428      3242.0519      0.78365112     2490.5661    
      6350   1.27           18.902816     -30538.15      -30519.247      782.02434      5751.9202      0.77298969     2524.9172    
      6400   1.28           18.569523     -30537.705     -30519.135      768.23572      5569.7099      0.76239216     2560.0144    
      6450   1.29           18.897236     -30537.373     -30518.476      781.79348      3610.8397      0.75299082     2591.9771    
      6500   1.3            20.77119      -30537.487     -30516.716      859.32041     -2354.2887      0.74512528     2619.338     
      6550   1.31           23.120499     -30537.893     -30514.773      956.51316     -5139.2383      0.73922182     2640.2561    
      6600   1.32           21.640442     -30536.142     -30514.501      895.28208     -3575.776       0.73509757     2655.0693    
      6650   1.33           19.409763     -30534.136     -30514.726      802.99713      394.2282       0.73247658     2664.5698    
      6700   1.34           18.731365     -30533.589     -30514.858      774.93127      3753.6526      0.73103716     2669.8163    
      6750   1.35           20.242629     -30535.167     -30514.924      837.45342      3863.6682      0.73080358     2670.6697    
      6800   1.36           19.493316     -30534.778     -30515.284      806.45378      4589.7997      0.73182198     2666.9532    
      6850   1.37           19.113435     -30534.85      -30515.737      790.73781      2863.9359      0.7332609      2661.7196    
      6900   1.38           17.407461     -30533.466     -30516.059      720.16033      2473.3135      0.73472461     2656.417     
      6950   1.39           18.843595     -30534.455     -30515.611      779.57432     -662.2067       0.73608178     2651.5192    
      7000   1.4            20.83781      -30535.029     -30514.192      862.07655     -4395.2581      0.73766905     2645.8138    
      7050   1.41           19.703954     -30532.951     -30513.247      815.16804     -3179.2247      0.74021291     2636.721     
      7100   1.42           20.662125     -30533.868     -30513.206      854.80831     -5388.2396      0.74324359     2625.9694    
      7150   1.43           20.562083     -30534.969     -30514.407      850.66951     -2002.0639      0.74729443     2611.7349    
      7200   1.44           19.984177     -30535.936     -30515.952      826.76109      901.83339      0.75168874     2596.4669    
      7250   1.45           19.748434     -30536.283     -30516.534      817.0082       5451.9071      0.75572913     2582.5853    
      7300   1.46           18.861292     -30535.344     -30516.482      780.30645      9394.187       0.75880028     2572.1326    
      7350   1.47           19.021305     -30535.036     -30516.014      786.92631      11058.014      0.76073828     2565.58      
      7400   1.48           19.742332     -30535.293     -30515.551      816.75576      6605.4167      0.76161424     2562.6293    
      7450   1.49           19.538364     -30534.963     -30515.425      808.31746      981.68291      0.76198754     2561.3738    
      7500   1.5            20.0566       -30535.676     -30515.619      829.75725     -5142.9457      0.76214976     2560.8287    
      7550   1.51           18.703706     -30535.179     -30516.476      773.78697     -10569.725      0.76219963     2560.6611    
      7600   1.52           18.518296     -30536.443     -30517.925      766.11643     -14532.226      0.76194562     2561.5147    
      7650   1.53           18.08231      -30537.182     -30519.099      748.07936     -12090.052      0.76216162     2560.7888    
      7700   1.54           17.413695     -30536.792     -30519.378      720.41822     -6558.9393      0.76310516     2557.6225    
      7750   1.55           16.781807     -30535.555     -30518.773      694.27651      1670.59        0.765042       2551.1475    
      7800   1.56           17.60465      -30535.053     -30517.448      728.31817      7488.7665      0.76748783     2543.0174    
      7850   1.57           19.542772     -30536.028     -30516.486      808.49982      7994.2838      0.76976236     2535.5032    
      7900   1.58           20.442528     -30536.493     -30516.051      845.72342      4726.1187      0.77096981     2531.5323    
      7950   1.59           20.143944     -30535.893     -30515.749      833.37078      1479.011       0.77022807     2533.9701    
      8000   1.6            20.393941     -30536.036     -30515.643      843.71333     -1429.8697      0.76744788     2543.1498    
      8050   1.61           20.762797     -30537.016     -30516.253      858.97322     -939.18137      0.76397336     2554.716     
      8100   1.62           19.222624     -30536.724     -30517.501      795.25502      980.70593      0.76019663     2567.408     
      8150   1.63           17.893358     -30536.127     -30518.233      740.26224      3279.189       0.75616454     2581.0982    
      8200   1.64           18.348639     -30536.333     -30517.984      759.09758      2273.6799      0.75192398     2595.6546    
      8250   1.65           18.486078     -30535.552     -30517.066      764.78355     -1950.1093      0.7478074      2609.9433    
      8300   1.66           19.374136     -30535.249     -30515.875      801.52322     -6001.8671      0.74403045     2623.1923    
      8350   1.67           20.509567     -30535.791     -30515.281      848.49689     -5401.2977      0.74091582     2634.2195    
      8400   1.68           19.375876     -30534.64      -30515.264      801.59518     -428.33655      0.73815698     2644.0649    
      8450   1.69           20.491386     -30535.74      -30515.248      847.74473      2944.7513      0.73500653     2655.3981    
      8500   1.7            20.286942     -30535.649     -30515.362      839.2867       7578.1269      0.73154273     2667.9712    
      8550   1.71           20.544505     -30535.95      -30515.406      849.9423       7258.9666      0.72739519     2683.1837    
      8600   1.72           19.385038     -30534.975     -30515.59       801.97422      3686.3767      0.72295155     2699.676     
      8650   1.73           18.359443     -30534.152     -30515.793      759.54456     -1677.4116      0.71851631     2716.3405    
      8700   1.74           18.879137     -30534.433     -30515.554      781.04472     -6542.0935      0.71424838     2732.5717    
      8750   1.75           19.537895     -30534.125     -30514.587      808.29806     -8677.8319      0.71022121     2748.0663    
      8800   1.76           18.031222     -30531.393     -30513.362      745.96578     -6868.5001      0.70658182     2762.2207    
      8850   1.77           20.469675     -30532.61      -30512.141      846.84652     -5297.7137      0.70281102     2777.0409    
      8900   1.78           22.687714     -30534.582     -30511.894      938.60852     -3672.6958      0.69948393     2790.2499    
      8950   1.79           21.696706     -30534.924     -30513.227      897.60976     -231.81904      0.69735861     2798.7536    
      9000   1.8            18.895312     -30533.505     -30514.61       781.71389      1062.3503      0.69604962     2804.017     
      9050   1.81           18.060242     -30533.105     -30515.045      747.16637      1232.6382      0.69515745     2807.6157    
      9100   1.82           18.315846     -30533.315     -30514.999      757.74093     -1500.4859      0.69416582     2811.6264    
      9150   1.83           19.506722     -30534.328     -30514.821      807.00841     -4876.468       0.69309929     2815.9529    
      9200   1.84           19.415732     -30534.187     -30514.771      803.24405     -5879.5982      0.69214145     2819.8498    
      9250   1.85           18.458605     -30533.305     -30514.847      763.64698     -4439.7151      0.69150841     2822.4312    
      9300   1.86           18.860167     -30534.096     -30515.236      780.25992     -1522.9874      0.69162751     2821.9452    
      9350   1.87           18.034009     -30534.102     -30516.068      746.08112      2484.1384      0.6926177      2817.9109    
      9400   1.88           18.10841      -30535.026     -30516.918      749.15911      3094.0099      0.69390727     2812.674     
      9450   1.89           17.073075     -30534.485     -30517.411      706.32651      4643.9223      0.69564391     2805.6523    
      9500   1.9            16.522204     -30533.624     -30517.102      683.53655      7149.3985      0.69761842     2797.7113    
      9550   1.91           18.077417     -30533.685     -30515.608      747.87692      6877.741       0.69932917     2790.8673    
      9600   1.92           18.744125     -30532.813     -30514.069      775.45917      6442.9337      0.70066102     2785.5623    
      9650   1.93           20.195868     -30533.536     -30513.34       835.51889      2680.606       0.70087674     2784.705     
      9700   1.94           20.509418     -30533.669     -30513.16       848.49071     -444.80592      0.69981625     2788.9249    
      9750   1.95           19.705958     -30533.153     -30513.447      815.25094     -1045.5559      0.69748791     2798.2348    
      9800   1.96           17.563063     -30531.675     -30514.112      726.59768      44.177127      0.69402618     2812.1921    
      9850   1.97           17.629204     -30532.66      -30515.031      729.334       -1679.8195      0.69003303     2828.466     
      9900   1.98           17.406618     -30533.419     -30516.013      720.12545     -4039.1279      0.68667442     2842.3004    
      9950   1.99           17.437741     -30533.972     -30516.534      721.41301     -4814.6498      0.68483992     2849.9141    
     10000   2              18.77654      -30535.23      -30516.453      776.80019     -5748.5602      0.68499201     2849.2813    
     10050   2.01           19.345435     -30534.901     -30515.556      800.33583     -4105.7518      0.68760367     2838.4592    
     10100   2.02           19.781258     -30533.032     -30513.251      818.36615     -1179.608       0.69249489     2818.4106    
     10150   2.03           19.753551     -30531.977     -30512.223      817.2199       2606.295       0.69962075     2789.7042    
     10200   2.04           19.870498     -30532.112     -30512.241      822.05809      5427.5897      0.70834806     2755.3332    
     10250   2.05           20.876901     -30533.348     -30512.471      863.69376      7039.5387      0.7179774      2718.3794    
     10300   2.06           21.002047     -30534.183     -30513.181      868.87116      6034.9147      0.72808483     2680.6422    
     10350   2.07           18.439677     -30532.923     -30514.483      762.86391      4232.5178      0.7387326      2642.0046    
     10400   2.08           17.588092     -30532.869     -30515.281      727.63317      1400.506       0.74908306     2605.4987    
     10450   2.09           18.682952     -30534.272     -30515.589      772.92838      48.934218      0.75919387     2570.7991    
     10500   2.1            18.80746      -30534.556     -30515.748      778.07939      1429.5902      0.7688096      2538.6454    
     10550   2.11           19.237854     -30535.051     -30515.813      795.88511      2066.432       0.7770591      2511.6943    
     10600   2.12           19.510683     -30535.454     -30515.944      807.17225      1277.5793      0.78399531     2489.4727    
     10650   2.13           18.491817     -30535.071     -30516.579      765.02097      706.27674      0.78991855     2470.8053    
     10700   2.14           17.082139     -30535.285     -30518.203      706.70151     -1161.3295      0.79481731     2455.5768    
     10750   2.15           16.22439      -30535.656     -30519.432      671.21575     -1940.5668      0.79901947     2442.6626    
     10800   2.16           17.239165     -30536.639     -30519.4        713.19777     -5289.9826      0.80237853     2432.4366    
     10850   2.17           17.940556     -30536.431     -30518.491      742.21488     -4607.9222      0.80592781     2421.7243    
     10900   2.18           18.646397     -30535.866     -30517.22       771.41605     -3498.4569      0.80964814     2410.5965    
     10950   2.19           18.856889     -30535.233     -30516.376      780.12429     -2362.1275      0.81396435     2397.8138    
     11000   2.2            18.789713     -30534.695     -30515.905      777.34518      2570.8554      0.81882908     2383.5682    
     11050   2.21           18.354011     -30533.904     -30515.55       759.31983      4393.0704      0.82339002     2370.3651    
     11100   2.22           18.269446     -30533.394     -30515.125      755.8213       6801.4826      0.82780981     2357.7094    
     11150   2.23           19.75102      -30534.408     -30514.657      817.11517      4259.1165      0.83155985     2347.0769    
     11200   2.24           21.397129     -30536.066     -30514.669      885.21602      19.102739      0.83462157     2338.4669    
     11250   2.25           20.328358     -30536.102     -30515.773      841.00013     -3080.5806      0.83714448     2331.4195    
     11300   2.26           18.719075     -30536.247     -30517.528      774.42283     -3289.8521      0.83903392     2326.1693    
     11350   2.27           18.433592     -30537.013     -30518.579      762.61217     -1954.0831      0.84085651     2321.1272    
     11400   2.28           18.655261     -30537.505     -30518.85       771.78278     -1067.1823      0.84334766     2314.2709    
     11450   2.29           19.137748     -30537.858     -30518.72       791.74363     -505.60625      0.84668198     2305.1571    
     11500   2.3            18.263974     -30536.575     -30518.311      755.59491      2992.9303      0.85039935     2295.0805    
     11550   2.31           18.68572      -30536.323     -30517.638      773.04288      4800.3464      0.85397971     2285.4582    
     11600   2.32           19.306889     -30536.047     -30516.74       798.74115      6170.8033      0.85684223     2277.823     
     11650   2.33           19.667263     -30535.517     -30515.849      813.65008      7493.4112      0.85840317     2273.681     
     11700   2.34           21.073726     -30536.483     -30515.409      871.83657      8089.8494      0.85832823     2273.8795    
     11750   2.35           21.843339     -30537.43      -30515.587      903.67606      6245.3504      0.85642999     2278.9194    
     11800   2.36           20.067198     -30536.3       -30516.233      830.19573      5967.8418      0.85306173     2287.9176    
     11850   2.37           19.264426     -30536.12      -30516.855      796.98442      3740.2057      0.84805402     2301.4276    
     11900   2.38           19.39443      -30536.559     -30517.165      802.36278      2204.4684      0.84195237     2318.1061    
     11950   2.39           18.949453     -30536.038     -30517.088      783.95373      2333.8739      0.83515192     2336.9819    
     12000   2.4            18.290825     -30534.691     -30516.4        756.70578      5757.2915      0.82801537     2357.1241    
     12050   2.41           19.341673     -30534.327     -30514.986      800.18016      7144.9312      0.82035036     2379.148     
     12100   2.42           21.35731      -30535.209     -30513.852      883.56868      5432.546       0.81268011     2401.6029    
     12150   2.43           20.875757     -30534.805     -30513.93       863.64644      3732.222       0.80564609     2422.5711    
     12200   2.44           20.516002     -30535.282     -30514.766      848.76311      1934.5416      0.79921836     2442.0547    
     12250   2.45           18.369255     -30534.598     -30516.229      759.95047      954.25929      0.79359829     2459.3487    
     12300   2.46           17.491216     -30534.482     -30516.991      723.62532     -800.28536      0.78868259     2474.6774    
     12350   2.47           18.14153      -30534.965     -30516.824      750.52933     -3118.2454      0.78427734     2488.5775    
     12400   2.48           18.060429     -30534.323     -30516.262      747.1741      -2656.1385      0.78065234     2500.1334    
     12450   2.49           18.26178      -30533.66      -30515.398      755.50417     -2180.2488      0.77744496     2510.4477    
     12500   2.5            19.210473     -30533.715     -30514.505      794.75234     -1790.8564      0.7744015      2520.314     
     12550   2.51           19.881233     -30533.877     -30513.996      822.50221     -2803.8215      0.77117431     2530.8609    
     12600   2.52           18.726046     -30532.888     -30514.162      774.71123      86.900134      0.76788358     2541.7068    
     12650   2.53           18.556599     -30533.294     -30514.738      767.70104     -1680.3562      0.76345299     2556.4573    
     12700   2.54           20.676189     -30536.025     -30515.349      855.39015     -2154.4459      0.75799443     2574.8671    
     12750   2.55           19.142016     -30535.259     -30516.117      791.92023      285.10223      0.75166577     2596.5462    
     12800   2.56           18.409278     -30534.951     -30516.542      761.60629      3869.986       0.74458118     2621.2521    
     12850   2.57           18.432141     -30534.774     -30516.342      762.55214      5614.448       0.7369613      2648.3547    
     12900   2.58           19.528267     -30534.824     -30515.296      807.89972      8906.9017      0.72948387     2675.5012    
     12950   2.59           20.950838     -30534.757     -30513.807      866.7526       5860.2807      0.72203414     2703.1062    
     13000   2.6            20.908717     -30533.948     -30513.039      865.01         3908.2039      0.7152781      2728.6379    
     13050   2.61           20.640635     -30533.726     -30513.086      853.91924     -132.86318      0.70924426     2751.8516    
     13100   2.62           19.893511     -30533.684     -30513.79       823.01014     -2372.293       0.70403018     2772.2319    
     13150   2.63           18.598726     -30533.281     -30514.683      769.4439      -2108.7444      0.69939083     2790.6213    
     13200   2.64           18.936111     -30534.122     -30515.186      783.40176     -920.57076      0.69517251     2807.5548    
     13250   2.65           19.319816     -30534.709     -30515.389      799.27594     -423.17165      0.69164453     2821.8758    
     13300   2.66           18.234564     -30533.726     -30515.491      754.37822      975.68326      0.68933912     2831.3132    
     13350   2.67           17.148816     -30532.506     -30515.357      709.45995     -34.194387      0.68806758     2836.5454    
     13400   2.68           16.957563     -30531.646     -30514.688      701.54767     -2524.6173      0.68767631     2838.1593    
     13450   2.69           18.994636     -30532.487     -30513.492      785.82298     -5102.3456      0.68783466     2837.5059    
     13500   2.7            19.409594     -30531.909     -30512.499      802.99012     -4934.8343      0.68800122     2836.819     
     13550   2.71           19.646087     -30531.71      -30512.064      812.77405     -4233.7151      0.68760846     2838.4394    
     13600   2.72           18.980308     -30531.293     -30512.313      785.23021     -2187.9086      0.68652203     2842.9313    
     13650   2.73           18.774677     -30531.824     -30513.049      776.72313     -1581.7534      0.68456326     2851.0659    
     13700   2.74           17.642738     -30531.758     -30514.115      729.89392     -205.81661      0.68228097     2860.6029    
     13750   2.75           17.920064     -30532.82      -30514.9        741.3671       326.15216      0.68020356     2869.3395    
     13800   2.76           18.329509     -30533.433     -30515.103      758.30617      123.59472      0.67862799     2876.0012    
     13850   2.77           19.752494     -30534.438     -30514.685      817.17616      95.80027       0.67786169     2879.2525    
     13900   2.78           21.604639     -30535.336     -30513.731      893.80086     -7.3475526      0.67804177     2878.4878    
     13950   2.79           20.524871     -30533.21      -30512.686      849.13002      3489.5212      0.67914158     2873.8263    
     14000   2.8            20.894646     -30532.472     -30511.577      864.42788      2888.9846      0.68020034     2869.3531    
     14050   2.81           21.368859     -30532.105     -30510.736      884.04646      1585.647       0.68099985     2865.9844    
     14100   2.82           20.439318     -30531.125     -30510.685      845.59064     -375.41412      0.68167148     2863.1606    
     14150   2.83           20.14507      -30531.595     -30511.45       833.41735     -3467.6784      0.68239953     2860.1059    
     14200   2.84           19.531672     -30532.577     -30513.046      808.04059     -5223.945       0.68411296     2852.9425    
     14250   2.85           19.195485     -30533.572     -30514.377      794.13225     -5090.9848      0.68738821     2839.3489    
     14300   2.86           18.257559     -30533.072     -30514.814      755.32955     -3312.2708      0.69211116     2819.9732    
     14350   2.87           17.84176      -30532.451     -30514.61       738.12762      654.3714       0.69813543     2795.6394    
     14400   2.88           19.521777     -30533.404     -30513.882      807.63124      3785.3773      0.70468467     2769.6572    
     14450   2.89           20.202492     -30533.352     -30513.149      835.79292      3790.1945      0.71101097     2745.0138    
     14500   2.9            19.859001     -30532.593     -30512.734      821.58243      2311.1648      0.71659391     2723.6276    
     14550   2.91           19.382212     -30532.032     -30512.65       801.8573      -1562.9797      0.72076399     2707.8697    
     14600   2.92           19.489463     -30532.235     -30512.746      806.29438     -3910.1096      0.72351697     2697.5662    
     14650   2.93           20.805111     -30533.981     -30513.176      860.72374     -5244.6523      0.72471992     2693.0886    
     14700   2.94           19.682869     -30534.63      -30514.947      814.29575     -3015.47        0.72531835     2690.8666    
     14750   2.95           17.836546     -30534.295     -30516.459      737.91191      2421.2327      0.72598939     2688.3794    
     14800   2.96           18.445744     -30535.085     -30516.64       763.1149       3730.6062      0.72606172     2688.1116    
     14850   2.97           18.035782     -30534.069     -30516.033      746.15444      2802.5876      0.72544372     2690.4016    
     14900   2.98           18.094171     -30532.937     -30514.843      748.57004      53.879323      0.72412849     2695.2881    
     14950   2.99           19.320063     -30532.952     -30513.632      799.28614     -1413.3968      0.72267794     2700.6981    
     15000   3              20.466719     -30533.566     -30513.1        846.72422     -1753.572       0.72128354     2705.9192    
     15050   3.01           20.168109     -30533.463     -30513.295      834.37049      412.08583      0.71992327     2711.0319    
     15100   3.02           19.445179     -30533.283     -30513.837      804.46231      4114.1817      0.71826507     2717.2906    
     15150   3.03           18.551982     -30533.007     -30514.455      767.51007      6486.7556      0.7161558      2725.2938    
     15200   3.04           18.572831     -30533.692     -30515.119      768.3726       5099.1057      0.71416565     2732.8883    
     15250   3.05           19.102362     -30535.07      -30515.968      790.27969      4073.3233      0.71333421     2736.0737    
     15300   3.06           19.788519     -30537.084     -30517.295      818.66655      121.18651      0.71385313     2734.0847    
     15350   3.07           18.109319     -30537.07      -30518.96       749.19674     -193.1994       0.71628301     2724.8098    
     15400   3.08           16.481428     -30535.993     -30519.512      681.8496      -791.07568      0.72039806     2709.2452    
     15450   3.09           16.556184     -30535.486     -30518.93       684.94232     -829.2236       0.72554284     2690.0341    
     15500   3.1            18.313678     -30536.304     -30517.99       757.6512      -57.947072      0.73093141     2670.2026    
     15550   3.11           19.750883     -30537.015     -30517.264      817.10953      1960.4433      0.73620468     2651.0765    
     15600   3.12           19.792622     -30536.523     -30516.731      818.83629      5178.3235      0.74102835     2633.8195    
     15650   3.13           19.733617     -30535.787     -30516.053      816.39523      8844.9847      0.74514211     2619.2788    
     15700   3.14           21.275751     -30536.389     -30515.113      880.19451      9383.3         0.74845687     2607.6786    
     15750   3.15           21.809602     -30536.301     -30514.492      902.28035      8015.7015      0.75124313     2598.0071    
     15800   3.16           21.040936     -30535.541     -30514.5        870.48001      6870.9101      0.75362639     2589.7911    
     15850   3.17           21.287846     -30536.625     -30515.337      880.69489      4235.7071      0.755617       2582.9685    
     15900   3.18           18.35098      -30535.538     -30517.187      759.19443      434.55937      0.75757215     2576.3024    
     15950   3.19           17.364661     -30535.429     -30518.065      718.38964     -4644.1036      0.7592494      2570.6111    
     16000   3.2            18.530603     -30536.514     -30517.983      766.6256      -7904.9332      0.76086002     2565.1695    
     16050   3.21           17.790558     -30535.369     -30517.579      736.00935     -7417.699       0.76254035     2559.517     
     16100   3.22           18.302403     -30535.248     -30516.946      757.18475     -5022.8195      0.76434981     2553.4578    
     16150   3.23           19.41104      -30535.635     -30516.224      803.04995     -1560.1994      0.7658667      2548.4003    
     16200   3.24           20.360675     -30535.803     -30515.443      842.33711      3115.8709      0.76703231     2544.5277    
     16250   3.25           20.792748     -30535.63      -30514.838      860.21228      6373.8732      0.76774758     2542.1571    
     16300   3.26           19.820056     -30534.509     -30514.689      819.97126      9202.6911      0.76843349     2539.8879    
     16350   3.27           20.303979     -30535.427     -30515.123      839.99152      9735.0197      0.76911014     2537.6534    
     16400   3.28           19.294108     -30536.067     -30516.773      798.21236      8080.8895      0.76979869     2535.3836    
     16450   3.29           18.600225     -30537.186     -30518.585      769.50592      4488.8966      0.77048277     2533.1325    
     16500   3.3            18.052068     -30536.972     -30518.92       746.8282       2605.9745      0.77090642     2531.7404    
     16550   3.31           18.125558     -30536.52      -30518.395      749.86857      2689.3717      0.77120922     2530.7464    
     16600   3.32           18.80641      -30536.273     -30517.467      778.03592     -584.96653      0.77094034     2531.629     
     16650   3.33           19.453187     -30536.074     -30516.621      804.79361     -3376.7147      0.77028382     2533.7868    
     16700   3.34           18.992285     -30535.133     -30516.141      785.72573     -6064.9258      0.76918306     2537.4128    
     16750   3.35           18.905167     -30534.763     -30515.858      782.1216      -6900.7518      0.76737316     2543.3975    
     16800   3.36           19.486247     -30535.063     -30515.576      806.16131     -5724.0447      0.76478256     2552.0129    
     16850   3.37           18.207425     -30533.495     -30515.287      753.25546     -2904.169       0.76185437     2561.8216    
     16900   3.38           19.519467     -30533.872     -30514.352      807.53565     -749.16833      0.75852238     2573.075     
     16950   3.39           21.985487     -30534.629     -30512.643      909.55684     -1199.4544      0.75542633     2583.6205    
     17000   3.4            20.647487     -30532.585     -30511.938      854.20272      2368.328       0.75339474     2590.5874    
     17050   3.41           21.454997     -30533.609     -30512.154      887.61004      1263.7273      0.7511784      2598.2309    
     17100   3.42           19.88094      -30533.629     -30513.748      822.49007      770.13989      0.74908554     2605.4901    
     17150   3.43           19.610365     -30534.92      -30515.31       811.29617      194.49143      0.74707479     2612.5028    
     17200   3.44           20.036844     -30536.098     -30516.062      828.93995     -2405.5041      0.74543129     2618.2627    
     17250   3.45           19.188269     -30535.889     -30516.701      793.83375     -3077.0766      0.74498722     2619.8234    
     17300   3.46           18.19248      -30535.287     -30517.095      752.63716     -1563.3206      0.74594389     2616.4635    
     17350   3.47           18.45963      -30535.564     -30517.104      763.68939     -175.00351      0.74820489     2608.5568    
     17400   3.48           19.294814     -30536.299     -30517.004      798.24157     -2853.1073      0.75170277     2596.4185    
     17450   3.49           18.045997     -30535.071     -30517.025      746.57703     -3465.8017      0.75663975     2579.4772    
     17500   3.5            18.627347     -30535.358     -30516.731      770.62797     -4148.1669      0.76191472     2561.6187    
     17550   3.51           19.740276     -30535.85      -30516.11       816.67069     -2927.0208      0.76683114     2545.1952    
     17600   3.52           20.234567     -30535.801     -30515.566      837.1199      -205.54517      0.77071505     2532.3691    
     17650   3.53           20.698612     -30536.11      -30515.412      856.31783      1674.991       0.77259802     2526.1972    
     17700   3.54           19.780767     -30535.653     -30515.872      818.34585      3788.5973      0.77234238     2527.0333    
     17750   3.55           19.527403     -30536.237     -30516.71       807.86398      1609.7094      0.76997798     2534.7932    
     17800   3.56           18.350184     -30535.954     -30517.604      759.16151     -357.01905      0.76607226     2547.7165    
     17850   3.57           17.758066     -30535.991     -30518.233      734.66513     -4001.2185      0.76119034     2564.0564    
     17900   3.58           18.804762     -30537.388     -30518.583      777.96777     -7294.5128      0.75585854     2582.1431    
     17950   3.59           18.873544     -30537.689     -30518.816      780.8133      -9694.3135      0.75073033     2599.7817    
     18000   3.6            18.43488      -30537.302     -30518.867      762.66544     -6869.4841      0.74623477     2615.4436    
     18050   3.61           17.896145     -30536.159     -30518.263      740.37756     -2704.149       0.74182434     2630.9934    
     18100   3.62           18.924787     -30535.744     -30516.819      782.93326      80.012273      0.73707794     2647.9357    
     18150   3.63           20.610641     -30536.002     -30515.391      852.67837      1839.8966      0.73197844     2666.3831    
     18200   3.64           20.76423      -30535.407     -30514.643      859.03246      2603.2808      0.72663225     2686.001     
     18250   3.65           19.971806     -30534.481     -30514.509      826.24928      4799.0034      0.72142444     2705.3907    
     18300   3.66           19.700323     -30534.657     -30514.956      815.01783      5992.1009      0.71642128     2724.2839    
     18350   3.67           19.208739     -30534.751     -30515.543      794.68062      5368.6587      0.71140174     2743.506     
     18400   3.68           17.530878     -30533.361     -30515.83       725.26618      3260.1551      0.70605668     2764.2752    
     18450   3.69           17.172348     -30532.66      -30515.488      710.43351     -335.55511      0.70049195     2786.2346    
     18500   3.7            18.954648     -30533.276     -30514.321      784.16866     -2854.7755      0.69544612     2806.4503    
     18550   3.71           20.437559     -30533.638     -30513.201      845.51783     -2432.938       0.6915237      2822.3688    
     18600   3.72           20.101776     -30533.15      -30513.048      831.62625      2219.9776      0.68843924     2835.0141    
     18650   3.73           20.975878     -30534.882     -30513.907      867.78854      5205.4947      0.68565598     2846.5222    
     18700   3.74           17.599846     -30533.43      -30515.83       728.11943      8393.7621      0.68399446     2853.4368    
     18750   3.75           16.743687     -30533.225     -30516.482      692.69948      6516.1518      0.6830232      2857.4943    
     18800   3.76           17.601017     -30533.813     -30516.212      728.16789      2759.5225      0.68274385     2858.6635    
     18850   3.77           18.073683     -30533.689     -30515.615      747.72244     -1277.5065      0.68330666     2856.309     
     18900   3.78           19.521094     -30534.437     -30514.916      807.60299     -3726.0784      0.68487065     2849.7862    
     18950   3.79           19.809424     -30534.169     -30514.359      819.53142     -3281.6314      0.68739301     2839.3291    
     19000   3.8            21.17722      -30535.24      -30514.063      876.11822     -1661.4448      0.69059912     2826.1474    
     19050   3.81           19.723818     -30534.251     -30514.527      815.98983     -98.482227      0.69416404     2811.6336    
     19100   3.82           18.236191     -30533.946     -30515.71       754.44554      441.35765      0.69728146     2799.0633    
     19150   3.83           17.933147     -30535.33      -30517.397      741.90835      555.80955      0.69964297     2789.6156    
     19200   3.84           17.975068     -30536.429     -30518.453      743.64268     -273.54622      0.70178834     2781.0877    
     19250   3.85           17.071317     -30535.585     -30518.514      706.25375      326.42461      0.70432746     2771.0618    
     19300   3.86           17.778985     -30535.716     -30517.937      735.53055     -2125.7341      0.70706772     2760.3225    
     19350   3.87           18.166397     -30535.524     -30517.358      751.55807     -5361.8956      0.71043185     2747.2515    
     19400   3.88           17.96172      -30534.728     -30516.766      743.09044     -5618.3072      0.71402958     2733.4091    
     19450   3.89           19.300954     -30535.392     -30516.091      798.49562     -2378.3636      0.71753736     2720.0465    
     19500   3.9            20.008692     -30535.526     -30515.517      827.77526      2630.7893      0.72124028     2706.0815    
     19550   3.91           19.926198     -30535.062     -30515.136      824.36243      6630.8965      0.72537521     2690.6557    
     19600   3.92           19.00993      -30534.1       -30515.09       786.4557       7848.2587      0.72998352     2673.6699    
     19650   3.93           18.733215     -30534.064     -30515.331      775.00779      5171.0148      0.73454599     2657.063     
     19700   3.94           20.136049     -30535.825     -30515.689      833.04415     -497.78179      0.73881423     2641.7127    
     19750   3.95           19.361198     -30535.966     -30516.605      800.98793     -1342.8623      0.74314498     2626.3179    
     19800   3.96           17.092755     -30534.98      -30517.887      707.14067      89.083198      0.74708137     2612.4797    
     19850   3.97           16.967747     -30535.419     -30518.451      701.96902      653.5666       0.75029935     2601.275     
     19900   3.98           17.824778     -30536.107     -30518.282      737.42503     -177.26917      0.75304439     2591.7927    
     19950   3.99           20.341269     -30537.751     -30517.409      841.53425      16.294697      0.75543752     2583.5822    
     20000   4              21.59683      -30537.849     -30516.252      893.4778       1668.2781      0.75700263     2578.2407    
     20050   4.01           21.334887     -30536.925     -30515.59       882.64101      5599.241       0.75721714     2577.5103    
     20100   4.02           19.035176     -30534.661     -30515.625      787.50015      9105.2255      0.7554308      2583.6052    
     20150   4.03           19.026622     -30534.898     -30515.872      787.14626      9180.8598      0.75118156     2598.22      
     20200   4.04           20.084852     -30536.316     -30516.231      830.92607      1698.3672      0.74424039     2622.4523    
     20250   4.05           19.301388     -30536.552     -30517.251      798.51357     -1281.0911      0.736302       2650.7261    
     20300   4.06           16.854855     -30535.253     -30518.398      697.29857     -3194.0635      0.72796406     2681.087     
     20350   4.07           16.031132     -30534.63      -30518.599      663.22051     -3120.9213      0.71933443     2713.2511    
     20400   4.08           17.433004     -30535.125     -30517.692      721.21703     -2721.7026      0.71056897     2746.7213    
     20450   4.09           18.649867     -30534.858     -30516.209      771.55963     -524.61087      0.702277       2779.1526    
     20500   4.1            19.356565     -30534.515     -30515.158      800.79629      2694.7233      0.69472494     2809.3636    
     20550   4.11           17.987867     -30532.554     -30514.567      744.17218      7697.9137      0.68788438     2837.3009    
     20600   4.12           19.37357      -30533.231     -30513.857      801.4998       7221.2259      0.68123124     2865.0109    
     20650   4.13           20.584837     -30533.726     -30513.141      851.61086      3417.0245      0.67510395     2891.014     
     20700   4.14           19.897696     -30532.651     -30512.753      823.18328     -11.508959      0.66975153     2914.1179    
     20750   4.15           20.154163     -30532.532     -30512.378      833.79355     -5080.4026      0.66497693     2935.0416    
     20800   4.16           18.198605     -30530.627     -30512.428      752.89056     -4950.6184      0.66137198     2951.0397    
     20850   4.17           18.510267     -30531.236     -30512.726      765.78426     -5632.7976      0.65811503     2965.6441    
     20900   4.18           19.246797     -30532.356     -30513.11       796.25507     -3392.8297      0.65489258     2980.2368    
     20950   4.19           19.043499     -30532.607     -30513.563      787.8445      -530.76054      0.65170028     2994.8352    
     21000   4.2            16.840149     -30530.796     -30513.956      696.69019      3537.1359      0.64888734     3007.8179    
     21050   4.21           18.082775     -30531.782     -30513.7        748.09859      3605.3246      0.64603381     3021.1034    
     21100   4.22           20.23512      -30533.234     -30512.999      837.14277      1384.5494      0.64356139     3032.7098    
     21150   4.23           19.046464     -30531.323     -30512.277      787.96715      1340.2439      0.64165412     3041.7243    
     21200   4.24           19.733999     -30530.958     -30511.224      816.41101      1354.3593      0.63973468     3050.8506    
     21250   4.25           20.909332     -30531.383     -30510.474      865.03545      289.34915      0.63749162     3061.5853    
     21300   4.26           20.493489     -30531.193     -30510.699      847.83173     -847.80211      0.63494315     3073.8735    
     21350   4.27           17.993977     -30529.905     -30511.911      744.42493     -1645.2475      0.6317658      3089.333     
     21400   4.28           17.476807     -30530.736     -30513.259      723.02921     -3056.2685      0.6276005      3109.8365    
     21450   4.29           18.266304     -30532.551     -30514.285      755.69134     -2914.9437      0.62334126     3131.0858    
     21500   4.3            18.065021     -30532.724     -30514.659      747.3641       145.0872       0.6194837      3150.5832    
     21550   4.31           18.486646     -30532.926     -30514.439      764.80705      2961.1684      0.61574733     3169.701     
     21600   4.32           17.881815     -30531.955     -30514.073      739.7847       6192.0472      0.61221596     3187.9844    
     21650   4.33           18.460297     -30531.951     -30513.491      763.71697      4423.5393      0.60860181     3206.9161    
     21700   4.34           18.976752     -30531.638     -30512.661      785.08312      2007.7929      0.60509958     3225.4773    
     21750   4.35           19.912305     -30531.702     -30511.789      823.78766     -1164.1785      0.60141145     3245.2574    
     21800   4.36           19.338548     -30530.725     -30511.387      800.0509      -2528.2334      0.59772125     3265.2929    
     21850   4.37           19.408055     -30530.887     -30511.479      802.92646     -3326.6465      0.59405982     3285.4182    
     21900   4.38           18.05996      -30529.962     -30511.902      747.1547      -1263.7866      0.59039079     3305.8357    
     21950   4.39           17.535544     -30529.813     -30512.278      725.45922     -192.09637      0.5863721      3328.4921    
     22000   4.4            18.84316      -30531.218     -30512.375      779.5563       1947.2263      0.58225949     3352.0019    
     22050   4.41           20.262308     -30532.646     -30512.383      838.26757      1861.3025      0.57829864     3374.9603    
     22100   4.42           19.76207      -30532.378     -30512.616      817.57233      597.79206      0.57469733     3396.1093    
     22150   4.43           19.164916     -30532.151     -30512.986      792.8676      -2298.9875      0.57144152     3415.4588    
     22200   4.44           17.662223     -30531.154     -30513.492      730.70003     -3296.2849      0.56878373     3431.4183    
     22250   4.45           17.672712     -30531.336     -30513.663      731.13396     -3925.4749      0.56650539     3445.2187    
     22300   4.46           17.955029     -30531.268     -30513.313      742.81364     -2724.599       0.56456293     3457.0725    
     22350   4.47           19.847138     -30532.297     -30512.449      821.09166     -1125.1396      0.56266444     3468.737     
     22400   4.48           20.613806     -30532.186     -30511.573      852.80932      3445.3019      0.56104215     3478.7671    
     22450   4.49           21.336698     -30532.503     -30511.166      882.71591      6168.0082      0.55937951     3489.107     
     22500   4.5            19.939193     -30531.236     -30511.297      824.90006      8094.5509      0.55726181     3502.3663    
     22550   4.51           20.144755     -30531.839     -30511.695      833.40432      5766.293       0.55430836     3521.0274    
     22600   4.52           20.013675     -30532.79      -30512.776      827.98142      1609.9495      0.55104919     3541.8525    
     22650   4.53           18.902834     -30533.211     -30514.309      782.02508     -2404.8721      0.54830717     3559.5649    
     22700   4.54           17.858489     -30532.876     -30515.018      738.8197      -4616.4599      0.54643176     3571.7816    
     22750   4.55           17.470212     -30532.231     -30514.761      722.75638     -3615.6527      0.54541481     3578.4414    
     22800   4.56           18.251831     -30531.934     -30513.682      755.09256     -2224.2614      0.54515539     3580.1443    
     22850   4.57           19.132669     -30531.537     -30512.404      791.53354      848.36321      0.54535189     3578.8542    
     22900   4.58           19.150774     -30530.751     -30511.6        792.28252      3027.9825      0.54546513     3578.1113    
     22950   4.59           18.7925       -30529.831     -30511.039      777.46047      3465.891       0.54532689     3579.0184    
     23000   4.6            21.167913     -30531.592     -30510.424      875.73318      526.27732      0.54472655     3582.9628    
     23050   4.61           21.558245     -30531.896     -30510.337      891.88151     -934.65544      0.54440366     3585.0878    
     23100   4.62           20.395701     -30531.554     -30511.159      843.78613     -1566.7645      0.5447214      3582.9966    
     23150   4.63           18.867832     -30531.418     -30512.55       780.57699      98.516809      0.54581341     3575.8281    
     23200   4.64           18.620961     -30532.087     -30513.466      770.36375      786.61386      0.54730054     3566.1119    
     23250   4.65           19.192199     -30532.938     -30513.746      793.99632      371.38682      0.5488799      3555.8507    
     23300   4.66           18.697843     -30532.407     -30513.709      773.54445      926.10656      0.55055507     3545.0313    
     23350   4.67           19.589543     -30533.074     -30513.484      810.43476      522.71274      0.55211388     3535.0224    
     23400   4.68           19.815011     -30533.261     -30513.446      819.76257      1463.9313      0.55370709     3524.8509    
     23450   4.69           18.984551     -30532.561     -30513.577      785.40578      577.19126      0.55491916     3517.1518    
     23500   4.7            18.50527      -30532.022     -30513.517      765.57754     -573.78011      0.55557054     3513.0282    
     23550   4.71           18.454607     -30531.26      -30512.806      763.48158     -2381.8431      0.5554391      3513.8595    
     23600   4.72           19.680803     -30530.344     -30510.663      814.21027     -2457.4773      0.55447747     3519.9536    
     23650   4.73           20.897394     -30530.122     -30509.225      864.5416      -2166.493       0.55228862     3533.904     
     23700   4.74           20.627957     -30529.959     -30509.331      853.39477     -1028.4239      0.54848122     3558.4353    
     23750   4.75           20.870667     -30531.171     -30510.301      863.43588      956.92222      0.54324751     3592.7177    
     23800   4.76           20.935739     -30532.568     -30511.632      866.12795      2012.3178      0.53711455     3633.7406    
     23850   4.77           19.874701     -30532.604     -30512.729      822.23196      2650.262       0.53088357     3676.3898    
     23900   4.78           18.160747     -30531.541     -30513.38       751.32433      3834.0319      0.525071       3717.0877    
     23950   4.79           18.864674     -30532.259     -30513.394      780.44638      2674.6054      0.5195878      3756.314     
     24000   4.8            20.114916     -30533.244     -30513.129      832.16984      2269.8202      0.51494251     3790.1997    
     24050   4.81           20.398274     -30533.285     -30512.887      843.89258      2418.398       0.51135997     3816.7535    
     24100   4.82           19.614975     -30532.167     -30512.552      811.48691      2142.032       0.50861347     3837.3639    
     24150   4.83           19.330033     -30530.747     -30511.417      799.69863      719.70184      0.50628382     3855.0214    
     24200   4.84           19.006243     -30528.604     -30509.598      786.30318     -933.62451      0.50431579     3870.0651    
     24250   4.85           20.687877     -30529.389     -30508.701      855.87369     -2592.5215      0.5027097      3882.4295    
     24300   4.86           21.875848     -30530.907     -30509.031      905.02099     -3621.4666      0.50148892     3891.8805    
     24350   4.87           20.804292     -30530.848     -30510.043      860.68989     -4080.8323      0.50032974     3900.8974    
     24400   4.88           20.183609     -30531.101     -30510.918      835.01175     -1824.9515      0.49920168     3909.7123    
     24450   4.89           18.678094     -30530.139     -30511.461      772.72739      1384.511       0.49820538     3917.5309    
     24500   4.9            18.589403     -30530.151     -30511.561      769.0582       3725.2259      0.49737728     3924.0533    
     24550   4.91           19.702012     -30531.047     -30511.345      815.08771      4884.2896      0.49674111     3929.0788    
     24600   4.92           21.004306     -30532.048     -30511.044      868.96463      2482.6147      0.49610265     3934.1353    
     24650   4.93           20.611892     -30531.548     -30510.936      852.73013     -562.73115      0.49570349     3937.3032    
     24700   4.94           19.354207     -30530.429     -30511.075      800.69871     -3041.2361      0.49572563     3937.1274    
     24750   4.95           18.544481     -30530.023     -30511.479      767.19972     -5098.0679      0.4960453      3934.5901    
     24800   4.96           18.815735     -30531.115     -30512.299      778.42173     -6504.1533      0.49664246     3929.8592    
     24850   4.97           18.370446     -30531.445     -30513.075      759.99975     -5174.6866      0.49778174     3920.8649    
     24900   4.98           18.489792     -30531.765     -30513.276      764.93721     -2645.5011      0.49939099     3908.2302    
     24950   4.99           19.420158     -30532.386     -30512.966      803.42717     -6.2287272      0.50146888     3892.036     
     25000   5              19.453935     -30531.964     -30512.51       804.82457      2808.0056      0.50401794     3872.3521    
     25050   5.01           21.218146     -30533.248     -30512.03       877.81135      2785.4303      0.50669259     3851.9114    
     25100   5.02           20.332068     -30532.288     -30511.956      841.15359      2076.8816      0.50925214     3832.5513    
     25150   5.03           19.736961     -30532.338     -30512.601      816.53357      860.1214       0.51146168     3815.9944    
     25200   5.04           19.061624     -30533.096     -30514.035      788.59432     -386.00483      0.51295321     3804.8986    
     25250   5.05           17.337817     -30532.472     -30515.135      717.2791      -880.97099      0.51310738     3803.7554    
     25300   5.06           16.849269     -30532.192     -30515.342      697.06748     -2556.2135      0.51146258     3815.9878    
     25350   5.07           17.245819     -30532.274     -30515.028      713.47306     -3105.9933      0.50845638     3838.5494    
     25400   5.08           19.04421      -30533.222     -30514.178      787.87389     -3420.698       0.5043675      3869.6683    
     25450   5.09           19.619193     -30532.821     -30513.202      811.6614      -999.15265      0.49954221     3907.0471    
     25500   5.1            19.482783     -30532.233     -30512.75       806.018        1961.5569      0.49441983     3947.5256    
     25550   5.11           18.459278     -30531.189     -30512.73       763.67483      4259.0764      0.48930732     3988.7712    
     25600   5.12           19.861431     -30532.432     -30512.57       821.68298      3241.1437      0.48428384     4030.1467    
     25650   5.13           20.376431     -30532.778     -30512.401      842.98894      1023.6146      0.47982414     4067.6047    
     25700   5.14           19.154668     -30531.436     -30512.282      792.44363     -1164.0229      0.47615598     4098.9404    
     25750   5.15           18.685648     -30530.51      -30511.825      773.03993     -3227.2133      0.4730474      4125.876     
     25800   5.16           19.988267     -30531.058     -30511.07       826.93028     -3517.5216      0.47058222     4147.4898    
     25850   5.17           20.493836     -30530.96      -30510.466      847.84605     -1698.9244      0.46893922     4162.0211    
     25900   5.18           20.457869     -30530.4       -30509.942      846.35809      263.0944       0.46770379     4173.0151    
     25950   5.19           21.244436     -30530.467     -30509.222      878.89896      1009.1701      0.466564       4183.2095    
     26000   5.2            21.058294     -30529.949     -30508.891      871.19814      670.35805      0.4654807      4192.9449    
     26050   5.21           20.436076     -30530.054     -30509.618      845.45649     -954.03958      0.46440266     4202.6782    
     26100   5.22           19.342487     -30530.485     -30511.143      800.21388     -2426.1814      0.46351373     4210.7382    
     26150   5.23           17.825505     -30530.096     -30512.271      737.45514     -2886.5469      0.46292945     4216.0527    
     26200   5.24           17.947161     -30530.53      -30512.583      742.48812     -2383.9535      0.46275173     4217.6718    
     26250   5.25           19.490244     -30531.796     -30512.305      806.32666     -1927.9312      0.46306984     4214.7744    
     26300   5.26           20.705563     -30532.416     -30511.711      856.6054      -1072.0944      0.4641339      4205.1118    
     26350   5.27           19.624363     -30530.68      -30511.056      811.8753       970.12357      0.46586114     4189.5208    
     26400   5.28           19.686686     -30529.98      -30510.293      814.45363      843.77531      0.46767138     4173.3043    
     26450   5.29           20.295629     -30529.544     -30509.248      839.64609     -930.15543      0.46915421     4160.1139    
     26500   5.3            21.486794     -30529.603     -30508.116      888.92551     -1948.9028      0.47037671     4149.3019    
     26550   5.31           22.531189     -30530.101     -30507.57       932.13295     -732.9745       0.47128102     4141.34      
     26600   5.32           20.427647     -30529.026     -30508.599      845.1078       1314.7989      0.4716063      4138.4836    
     26650   5.33           19.173601     -30529.778     -30510.604      793.22692      3381.5383      0.47128857     4141.2736    
     26700   5.34           20.358897     -30532.149     -30511.79       842.26353      2141.408       0.47037859     4149.2852    
     26750   5.35           19.070734     -30531.521     -30512.45       788.97123      1927.6254      0.46942419     4157.7213    
     26800   5.36           17.461485     -30530.149     -30512.688      722.39533      558.31682      0.46818766     4168.7023    
     26850   5.37           19.049377     -30531.54      -30512.49       788.08766     -1484.7001      0.46684796     4180.665     
     26900   5.38           19.885174     -30532.041     -30512.156      822.66523     -2937.9611      0.46564078     4191.5035    
     26950   5.39           18.481288     -30530.299     -30511.818      764.58537     -596.70707      0.46479293     4199.1494    
     27000   5.4            18.450409     -30529.382     -30510.932      763.30791      201.37929      0.46371167     4208.9407    
     27050   5.41           19.938044     -30529.471     -30509.533      824.85251      474.33057      0.46244198     4220.4969    
     27100   5.42           21.078523     -30529.718     -30508.639      872.03503     -1598.2566      0.46071377     4236.3287    
     27150   5.43           21.412162     -30530.116     -30508.704      885.83794     -1854.1831      0.45849784     4256.8029    
     27200   5.44           19.685075     -30529.403     -30509.718      814.38699     -1203.8606      0.45561952     4283.6948    
     27250   5.45           19.239884     -30530.436     -30511.196      795.96907      346.50796      0.45203118     4317.6998    
     27300   5.46           19.063828     -30531.334     -30512.27       788.68552      1607.846       0.44806101     4355.958     
     27350   5.47           19.642497     -30532.308     -30512.666      812.62549      3255.3641      0.44430495     4392.7824    
     27400   5.48           19.444515     -30532.15      -30512.705      804.43482      3888.2054      0.44072441     4428.4703    
     27450   5.49           18.089495     -30530.614     -30512.524      748.37658      3424.0456      0.43711006     4465.0881    
     27500   5.5            18.142732     -30530.035     -30511.892      750.57907      2564.4743      0.43324659     4504.9055    
     27550   5.51           19.323685     -30530.006     -30510.682      799.436        1256.5442      0.42889021     4550.6633    
     27600   5.52           20.333576     -30529.877     -30509.544      841.21599      728.36397      0.42407314     4602.3545    
     27650   5.53           21.196909     -30530.259     -30509.062      876.93274     -201.19856      0.41897328     4658.3757    
     27700   5.54           20.12089      -30529.17      -30509.049      832.41698     -1616.8243      0.41363794     4718.4622    
     27750   5.55           19.295712     -30528.439     -30509.143      798.27873     -1801.327       0.40809115     4782.5956    
     27800   5.56           19.813498     -30529.136     -30509.322      819.69996     -2052.6607      0.40242819     4849.8962    
     27850   5.57           19.52754      -30529.224     -30509.696      807.86964     -2194.0178      0.39684501     4918.129     
     27900   5.58           18.833791     -30528.937     -30510.103      779.16872     -842.39914      0.39163022     4983.6168    
     27950   5.59           19.204209     -30529.485     -30510.281      794.49317      178.94958      0.38709779     5041.9688    
     28000   5.6            19.720996     -30529.637     -30509.916      815.87309      890.27217      0.38346304     5089.7603    
     28050   5.61           19.104936     -30527.958     -30508.853      790.38619      1159.4433      0.38071322     5126.5226    
     28100   5.62           19.083823     -30526.604     -30507.52       789.51273     -328.83703      0.37870826     5153.6635    
     28150   5.63           20.389939     -30526.987     -30506.597      843.54775     -2944.3063      0.37735837     5172.0992    
     28200   5.64           21.337721     -30527.597     -30506.259      882.75824     -4972.5695      0.37653881     5183.3567    
     28250   5.65           20.568205     -30527.127     -30506.559      850.92279     -4522.5419      0.37624054     5187.4658    
     28300   5.66           18.639712     -30526.064     -30507.425      771.13949     -1167.0269      0.37634567     5186.0167    
     28350   5.67           18.083209     -30526.377     -30508.294      748.11654      2154.7022      0.37640848     5185.1514    
     28400   5.68           18.24457      -30527.005     -30508.76       754.79217      4047.9833      0.3762389      5187.4885    
     28450   5.69           19.619789     -30528.471     -30508.851      811.68607      4284.8359      0.3759287      5191.769     
[...]
    439500   87.9           18.29152      -30518.632     -30500.34       756.73452     -19.190222      0.010013847    194903.61    
    439550   87.91          17.745291     -30518.079     -30500.334      734.13661      14.237171      0.010013847    194903.61    
    439600   87.92          17.098237     -30517.432     -30500.334      707.36746      62.449009      0.010013847    194903.61    
    439650   87.93          17.665416     -30518.001     -30500.336      730.83212      68.028328      0.010013847    194903.61    
    439700   87.94          18.016632     -30518.353     -30500.336      745.36218      41.206546      0.010013847    194903.61    
    439750   87.95          17.152825     -30517.487     -30500.335      709.62583      4.4795622      0.010013847    194903.61    
    439800   87.96          17.131284     -30517.465     -30500.333      708.73467     -14.643402      0.010013847    194903.61    
    439850   87.97          17.436526     -30517.775     -30500.338      721.36277     -1.9298258      0.010013847    194903.61    
    439900   87.98          17.084576     -30517.416     -30500.332      706.80232      44.906844      0.010013847    194903.61    
    439950   87.99          17.628837     -30517.965     -30500.337      729.31881      67.719455      0.010013847    194903.61    
    440000   88             18.114276     -30518.453     -30500.338      749.40179      58.406387      0.010013847    194903.61    
    440050   88.01          16.911749     -30517.244     -30500.332      699.65233      43.374219      0.010013847    194903.61    
    440100   88.02          17.444995     -30517.779     -30500.334      721.71314      19.632706      0.010013847    194903.61    
    440150   88.03          18.18862      -30518.528     -30500.339      752.47749     -9.7528905      0.010013847    194903.61    
    440200   88.04          17.608606     -30517.944     -30500.335      728.48184      5.0707143      0.010013847    194903.61    
    440250   88.05          17.17477      -30517.509     -30500.334      710.53372      18.800764      0.010013847    194903.61    
    440300   88.06          17.738652     -30518.073     -30500.334      733.86193      23.80187       0.010013847    194903.61    
    440350   88.07          18.583135     -30518.922     -30500.339      768.79885      37.695954      0.010013847    194903.61    
    440400   88.08          18.431788     -30518.769     -30500.338      762.53751      44.610393      0.010013847    194903.61    
    440450   88.09          17.751763     -30518.085     -30500.334      734.40434      33.297941      0.010013847    194903.61    
    440500   88.1           17.600904     -30517.934     -30500.333      728.16322      5.8805617      0.010013847    194903.61    
    440550   88.11          18.424888     -30518.761     -30500.336      762.25206     -33.27493       0.010013847    194903.61    
    440600   88.12          18.299966     -30518.638     -30500.338      757.08395     -23.38462       0.010013847    194903.61    
    440650   88.13          17.81655      -30518.15      -30500.334      737.08467      27.494066      0.010013847    194903.61    
    440700   88.14          17.939332     -30518.274     -30500.335      742.16423      61.02207       0.010013847    194903.61    
    440750   88.15          18.63959      -30518.977     -30500.337      771.13444      69.91327       0.010013847    194903.61    
    440800   88.16          18.430635     -30518.769     -30500.338      762.48984      51.984354      0.010013847    194903.61    
    440850   88.17          17.063572     -30517.395     -30500.331      705.93337      31.831865      0.010013847    194903.61    
    440900   88.18          17.152301     -30517.486     -30500.333      709.60416      14.764922      0.010013847    194903.61    
    440950   88.19          17.922804     -30518.26      -30500.337      741.48045      18.250855      0.010013847    194903.61    
    441000   88.2           17.362887     -30517.696     -30500.333      718.31625      54.215004      0.010013847    194903.61    
    441050   88.21          17.707547     -30518.044     -30500.336      732.57511      90.749526      0.010013847    194903.61    
    441100   88.22          17.687466     -30518.022     -30500.334      731.74434      93.495269      0.010013847    194903.61    
    441150   88.23          18.063245     -30518.401     -30500.338      747.29061      63.042092      0.010013847    194903.61    
    441200   88.24          17.51171      -30517.847     -30500.336      724.47319      30.051652      0.010013847    194903.61    
    441250   88.25          17.332106     -30517.666     -30500.334      717.04281     -11.123937      0.010013847    194903.61    
    441300   88.26          17.1833       -30517.519     -30500.336      710.88661     -24.824407      0.010013847    194903.61    
    441350   88.27          17.445198     -30517.779     -30500.334      721.72151     -21.606353      0.010013847    194903.61    
    441400   88.28          17.936897     -30518.274     -30500.337      742.06348     -8.9065467      0.010013847    194903.61    
    441450   88.29          17.356271     -30517.689     -30500.333      718.04256      30.814888      0.010013847    194903.61    
    441500   88.3           17.923447     -30518.259     -30500.336      741.50704      49.529263      0.010013847    194903.61    
    441550   88.31          18.656247     -30518.995     -30500.339      771.82359      36.167153      0.010013847    194903.61    
    441600   88.32          18.096028     -30518.434     -30500.338      748.64688      29.454413      0.010013847    194903.61    
    441650   88.33          16.631494     -30516.96      -30500.328      688.05796      18.490504      0.010013847    194903.61    
    441700   88.34          18.175502     -30518.512     -30500.336      751.93479     -12.471552      0.010013847    194903.61    
    441750   88.35          19.043677     -30519.384     -30500.341      787.85184      3.4928377      0.010013847    194903.61    
    441800   88.36          17.633359     -30517.967     -30500.333      729.5059       57.911087      0.010013847    194903.61    
    441850   88.37          17.113081     -30517.447     -30500.334      707.98157      72.760668      0.010013847    194903.61    
    441900   88.38          18.598409     -30518.938     -30500.339      769.43077      36.262795      0.010013847    194903.61    
    441950   88.39          17.823501     -30518.16      -30500.337      737.37223     -2.0030541      0.010013847    194903.61    
    442000   88.4           17.360126     -30517.694     -30500.333      718.20202     -12.160227      0.010013847    194903.61    
    442050   88.41          17.625238     -30517.959     -30500.334      729.16991     -7.483829       0.010013847    194903.61    
    442100   88.42          18.257859     -30518.595     -30500.337      755.34197      22.269672      0.010013847    194903.61    
    442150   88.43          17.783075     -30518.118     -30500.335      735.69978      66.403518      0.010013847    194903.61    
    442200   88.44          18.196977     -30518.533     -30500.336      752.82319      71.353318      0.010013847    194903.61    
    442250   88.45          17.832636     -30518.168     -30500.336      737.75016      60.786382      0.010013847    194903.61    
    442300   88.46          18.057226     -30518.394     -30500.337      747.04161      51.672615      0.010013847    194903.61    
    442350   88.47          17.700704     -30518.035     -30500.335      732.29199      43.270106      0.010013847    194903.61    
    442400   88.48          16.947778     -30517.281     -30500.333      701.14286      30.932914      0.010013847    194903.61    
    442450   88.49          17.339155     -30517.675     -30500.336      717.33445      11.732003      0.010013847    194903.61    
    442500   88.5           17.705576     -30518.04      -30500.334      732.49356      6.5914961      0.010013847    194903.61    
    442550   88.51          17.582431     -30517.918     -30500.336      727.39898      39.291328      0.010013847    194903.61    
    442600   88.52          17.53062      -30517.864     -30500.333      725.25552      62.677063      0.010013847    194903.61    
    442650   88.53          18.015673     -30518.353     -30500.337      745.32252      62.1424        0.010013847    194903.61    
    442700   88.54          17.722165     -30518.057     -30500.334      733.17987      37.019785      0.010013847    194903.61    
    442750   88.55          17.428947     -30517.763     -30500.334      721.04922     -0.24177355     0.010013847    194903.61    
    442800   88.56          18.282978     -30518.62      -30500.337      756.38113     -31.223146      0.010013847    194903.61    
    442850   88.57          17.97248      -30518.31      -30500.338      743.53561      10.763966      0.010013847    194903.61    
    442900   88.58          16.803655     -30517.133     -30500.33       695.1804       77.522177      0.010013847    194903.61    
    442950   88.59          18.407553     -30518.744     -30500.337      761.53492      103.10677      0.010013847    194903.61    
    443000   88.6           18.241755     -30518.58      -30500.338      754.67572      100.26618      0.010013847    194903.61    
    443050   88.61          17.565906     -30517.899     -30500.333      726.71531      68.194767      0.010013847    194903.61    
    443100   88.62          17.764529     -30518.099     -30500.335      734.93252      32.284878      0.010013847    194903.61    
    443150   88.63          18.82746      -30519.167     -30500.34       778.90677      17.133989      0.010013847    194903.61    
    443200   88.64          17.811222     -30518.147     -30500.336      736.86424      39.289983      0.010013847    194903.61    
    443250   88.65          17.396841     -30517.728     -30500.331      719.72095      61.375533      0.010013847    194903.61    
    443300   88.66          18.907647     -30519.248     -30500.341      782.22421      36.429418      0.010013847    194903.61    
    443350   88.67          18.660908     -30518.997     -30500.337      772.01642      28.896537      0.010013847    194903.61    
    443400   88.68          17.506039     -30517.839     -30500.333      724.23856      35.27874       0.010013847    194903.61    
    443450   88.69          17.626378     -30517.961     -30500.334      729.21709      34.529012      0.010013847    194903.61    
    443500   88.7           18.020063     -30518.359     -30500.339      745.50416      35.94166       0.010013847    194903.61    
    443550   88.71          17.610672     -30517.946     -30500.335      728.56731      36.02952       0.010013847    194903.61    
    443600   88.72          17.76544      -30518.099     -30500.334      734.97018      27.271578      0.010013847    194903.61    
    443650   88.73          18.028608     -30518.366     -30500.337      745.85767      19.235486      0.010013847    194903.61    
    443700   88.74          17.681321     -30518.015     -30500.334      731.49012      16.35798       0.010013847    194903.61    
    443750   88.75          17.408049     -30517.745     -30500.337      720.18465      5.0707347      0.010013847    194903.61    
    443800   88.76          17.49398      -30517.83      -30500.336      723.73967     -11.215371      0.010013847    194903.61    
    443850   88.77          17.132405     -30517.465     -30500.333      708.78104     -11.240674      0.010013847    194903.61    
    443900   88.78          17.414795     -30517.748     -30500.334      720.46372      17.88092       0.010013847    194903.61    
    443950   88.79          17.639671     -30517.977     -30500.337      729.76702      54.325853      0.010013847    194903.61    
    444000   88.8           17.817037     -30518.154     -30500.336      737.10481      87.46065       0.010013847    194903.61    
    444050   88.81          17.566686     -30517.901     -30500.334      726.74758      78.4948        0.010013847    194903.61    
    444100   88.82          17.975325     -30518.312     -30500.337      743.65329      24.457739      0.010013847    194903.61    
    444150   88.83          17.714705     -30518.049     -30500.334      732.87125     -20.259657      0.010013847    194903.61    
    444200   88.84          17.959503     -30518.297     -30500.337      742.99872     -39.041417      0.010013847    194903.61    
    444250   88.85          17.724364     -30518.058     -30500.333      733.27084     -12.776149      0.010013847    194903.61    
    444300   88.86          17.863859     -30518.197     -30500.333      739.04188      40.711856      0.010013847    194903.61    
    444350   88.87          18.727793     -30519.065     -30500.337      774.7835       73.502859      0.010013847    194903.61    
    444400   88.88          18.893928     -30519.233     -30500.339      781.65664      86.1853        0.010013847    194903.61    
    444450   88.89          17.967766     -30518.303     -30500.335      743.34059      76.39625       0.010013847    194903.61    
    444500   88.9           18.160878     -30518.493     -30500.332      751.32977      30.207917      0.010013847    194903.61    
    444550   88.91          19.660871     -30520.002     -30500.341      813.38564     -19.605939      0.010013847    194903.61    
    444600   88.92          18.339775     -30518.675     -30500.335      758.73088     -18.763162      0.010013847    194903.61    
    444650   88.93          17.154086     -30517.485     -30500.331      709.67798     -5.8576591      0.010013847    194903.61    
    444700   88.94          17.914193     -30518.247     -30500.333      741.12421     -1.9682575      0.010013847    194903.61    
    444750   88.95          19.144158     -30519.483     -30500.339      792.00881     -1.4735759      0.010013847    194903.61    
    444800   88.96          18.494708     -30518.831     -30500.336      765.14058      25.371961      0.010013847    194903.61    
    444850   88.97          18.072176     -30518.407     -30500.335      747.6601       68.445183      0.010013847    194903.61    
    444900   88.98          18.35551      -30518.691     -30500.335      759.38185      73.347391      0.010013847    194903.61    
    444950   88.99          18.788469     -30519.126     -30500.338      777.29371      56.866077      0.010013847    194903.61    
    445000   89             18.068454     -30518.403     -30500.334      747.50613      35.368839      0.010013847    194903.61    
    445050   89.01          18.1806       -30518.513     -30500.333      752.14567     -4.0479996      0.010013847    194903.61    
    445100   89.02          18.356716     -30518.693     -30500.336      759.43174     -14.435393      0.010013847    194903.61    
    445150   89.03          18.155572     -30518.49      -30500.334      751.11025     -2.7689126      0.010013847    194903.61    
    445200   89.04          18.641305     -30518.979     -30500.338      771.20539      18.605547      0.010013847    194903.61    
    445250   89.05          18.139336     -30518.473     -30500.334      750.43855      49.523254      0.010013847    194903.61    
    445300   89.06          18.298632     -30518.633     -30500.335      757.02878      63.708392      0.010013847    194903.61    
    445350   89.07          19.339968     -30519.68      -30500.34       800.10966      64.450297      0.010013847    194903.61    
    445400   89.08          18.761534     -30519.096     -30500.335      776.1794       64.562206      0.010013847    194903.61    
    445450   89.09          18.170966     -30518.504     -30500.333      751.7471       28.132874      0.010013847    194903.61    
    445500   89.1           18.721827     -30519.058     -30500.337      774.53667     -37.894313      0.010013847    194903.61    
    445550   89.11          18.355328     -30518.69      -30500.335      759.37433     -62.951044      0.010013847    194903.61    
    445600   89.12          18.278635     -30518.614     -30500.335      756.20145     -21.312532      0.010013847    194903.61    
    445650   89.13          18.623697     -30518.961     -30500.337      770.47697      49.023724      0.010013847    194903.61    
    445700   89.14          18.43342      -30518.769     -30500.335      762.60504      98.457288      0.010013847    194903.61    
    445750   89.15          17.658496     -30517.99      -30500.332      730.54584      101.16158      0.010013847    194903.61    
    445800   89.16          18.422612     -30518.76      -30500.338      762.1579       21.24646       0.010013847    194903.61    
    445850   89.17          18.785999     -30519.124     -30500.338      777.1915      -40.119965      0.010013847    194903.61    
    445900   89.18          17.746541     -30518.078     -30500.332      734.18831     -29.995852      0.010013847    194903.61    
    445950   89.19          18.532139     -30518.867     -30500.335      766.68913     -10.553528      0.010013847    194903.61    
    446000   89.2           18.669833     -30519.007     -30500.337      772.38564      37.368459      0.010013847    194903.61    
    446050   89.21          18.329238     -30518.667     -30500.338      758.29496      63.408014      0.010013847    194903.61    
    446100   89.22          17.468865     -30517.801     -30500.332      722.70064      60.94978       0.010013847    194903.61    
    446150   89.23          18.344581     -30518.679     -30500.334      758.92971      42.463462      0.010013847    194903.61    
    446200   89.24          18.790771     -30519.129     -30500.339      777.38894      17.877979      0.010013847    194903.61    
    446250   89.25          18.134382     -30518.469     -30500.335      750.2336       16.108762      0.010013847    194903.61    
    446300   89.26          17.417865     -30517.749     -30500.331      720.59072      25.245976      0.010013847    194903.61    
    446350   89.27          18.125213     -30518.46      -30500.335      749.85429      10.294479      0.010013847    194903.61    
    446400   89.28          19.353838     -30519.694     -30500.34       800.68348      14.28205       0.010013847    194903.61    
    446450   89.29          17.874705     -30518.21      -30500.335      739.49056      43.958928      0.010013847    194903.61    
    446500   89.3           16.939956     -30517.271     -30500.331      700.81925      54.156758      0.010013847    194903.61    
    446550   89.31          18.232935     -30518.57      -30500.337      754.31082      18.655945      0.010013847    194903.61    
    446600   89.32          18.872155     -30519.213     -30500.341      780.75585     -22.926744      0.010013847    194903.61    
    446650   89.33          17.435719     -30517.768     -30500.332      721.32936     -9.312618       0.010013847    194903.61    
    446700   89.34          17.777921     -30518.111     -30500.333      735.48654      17.385825      0.010013847    194903.61    
    446750   89.35          18.81474      -30519.154     -30500.339      778.38055      29.87454       0.010013847    194903.61    
    446800   89.36          17.976016     -30518.309     -30500.333      743.68188      57.401703      0.010013847    194903.61    
    446850   89.37          18.096748     -30518.432     -30500.335      748.67666      45.637424      0.010013847    194903.61    
    446900   89.38          18.53196      -30518.87      -30500.338      766.68173      24.528294      0.010013847    194903.61    
    446950   89.39          18.032374     -30518.366     -30500.333      746.01347      35.255934      0.010013847    194903.61    
    447000   89.4           18.092846     -30518.428     -30500.335      748.51521      62.169796      0.010013847    194903.61    
    447050   89.41          19.263921     -30519.602   