LAMMPS data file via write_data, version 2 Aug 2023, timestep = 550000, units = metal

188 atoms
4 atom types

-0.16192208843784162 12.25899368843821 xlo xhi
-0.16192208843784162 12.25899368843821 ylo yhi
-0.16192208843784162 12.25899368843821 zlo zhi

Masses

1 15.999
2 1.00794
3 22.9898
4 35.45

Atoms # atomic

73 2 1.9266462536539004 0.07130918125566595 0.0909942157904343 -1 3 -1
7 1 0.9348595146180245 0.7645635446028984 2.664960262146943 0 2 1
75 2 1.5805536036033307 1.4762795232579713 2.5297392493727364 0 2 1
76 2 0.639690455205178 0.5344337713748087 1.7640106053526667 0 2 1
6 1 1.0958877899094204 0.5959422194046032 -0.03604704341796234 -1 3 -1
38 1 4.186321185028717 3.433941253746114 1.436234335214117 0 2 0
138 2 4.047792813660388 3.5612725811471613 0.4740545493210492 0 2 0
115 2 8.115115793677834 0.8204410166451294 3.7453024329271414 2 -1 -2
27 1 7.969843179082109 0.2415645167608453 2.9807081570290617 2 -1 -2
177 2 5.86653044927996 2.9336519891513344 1.3749679755611508 -1 -1 2
94 2 5.835619105811801 0.5401819523967495 2.9372595186439687 1 -1 -1
58 1 6.854443024323193 3.0837058794451133 1.3902068443398075 -1 -1 2
178 2 7.266103598198982 2.2287342952181506 1.1284729439891354 -1 -1 2
16 1 5.241418982810111 -0.059433179285935694 2.5975892474288553 1 -1 -1
79 2 6.981485573389345 3.9112135611154466 3.3087199060526653 1 -1 -1
100 2 9.68220079882155 0.9080343373959976 1.7968338489147277 -1 0 1
19 1 10.09344833564229 1.2598297150433553 1.0254714507717502 -1 0 1
99 2 10.95288245066832 1.717546119494813 1.285248046602369 -1 0 1
128 2 12.080719018688823 1.4420274566038804 3.672435783477563 -2 1 -1
66 2 10.871017780077628 3.7295398824923867 3.077322270733742 -2 0 2
33 1 11.142069480875707 1.5522474502062253 3.9572251256103725 -2 1 -1
105 2 0.14072645484262192 7.437076283787022 1.279423904775314 2 1 0
164 2 3.0843685893384687 7.376351744105431 0.25676284208358885 0 -1 0
51 1 2.1738601396802144 7.092903953539938 0.41861054828744787 0 -1 0
125 2 1.1333328002735978 5.854684756033579 2.9328093109188322 1 0 1
32 1 1.522712911119217 6.234633069711707 3.7858897636498514 1 0 1
126 2 1.8422545429986688 7.117269404429492 3.590053554264464 0 0 1
137 2 4.013161155944967 4.288375373154517 1.884523242156466 0 2 0
160 2 6.422688216821819 4.725128844529151 0.6537507593723884 0 2 1
9 1 6.392122187439696 4.445540475476831 3.7714163571577126 1 -1 -1
182 2 6.28621690766278 6.512621388246375 1.757216737179119 2 0 0
60 1 6.6055420997392265 6.963164356752175 2.571788298539746 2 0 0
80 2 6.713824079472282 5.331516373451616 3.5877251146435674 1 -1 -1
181 2 7.4546694923181365 7.26981866500064 2.282447068631721 2 0 0
49 1 6.507169343870707 5.553332602438111 0.09644271614921103 0 2 1
159 2 7.425643883327799 5.657746006382524 0.05694943440307024 0 2 1
171 2 8.002736092683048 7.979535638461956 0.20613760911188184 1 0 2
22 1 11.626631943500218 7.252621325836359 1.3070358343868138 1 1 0
106 2 11.1965550131709 8.027404898929522 1.6594163960569872 1 1 0
2 1 11.075171236102634 4.6162061347537655 2.72448947071879 -2 0 2
65 2 11.019036835149413 4.506184663772894 1.8018168162632917 -2 0 2
183 2 10.14714102873647 5.784064061750068 3.5316276055965368 -1 0 2
55 1 8.915610435933432 7.589461037845925 0.5151364177384095 1 0 2
174 2 3.6114054874312154 11.566240597163345 1.9735282745489857 0 -2 -1
133 2 2.319371375964449 9.667052924061833 3.9067264961402643 2 2 0
173 2 2.469561718415674 10.5749992713756 1.7543811304209003 0 -2 -1
56 1 2.973156845265811 11.311093563440034 1.3065428738212435 0 -2 -1
134 2 3.770633687422632 9.185861381162532 3.7914850177550123 2 2 0
108 2 0.2106226178663928 10.308649992888219 3.493643856882242 3 1 2
23 1 1.0620347601238653 10.67018103560192 3.9311563874120727 3 1 2
107 2 1.184501560744947 11.446996884954446 3.448757071136039 3 1 2
118 2 2.9909487114072304 9.263833996158876 -0.03028686617949102 -1 -1 0
57 1 0.31293218571250037 9.68582169302897 0.09985860804143239 -1 -1 1
116 2 8.095743779704028 11.768062328945367 3.313342466066838 2 -2 -2
111 2 5.002366977495567 11.870225544632685 -0.017238066661743406 -1 -1 3
93 2 5.596939772191263 11.620162752769009 3.0652258319470067 1 -2 -1
103 2 5.507776787765522 8.390173264624822 2.015935555720664 1 -2 -2
21 1 5.0864321709324125 9.272604574970368 1.809135219035679 1 -2 -2
104 2 5.499270002506918 9.49447728118103 0.9617014733532661 1 -2 -2
148 2 6.887759244788358 9.626072784855571 2.653030449184966 0 -1 -1
43 1 7.448735785547829 9.93140634440978 3.3905255786501916 0 -1 -1
88 2 7.676461764908555 10.14313444474921 0.005454743655610975 1 -1 2
13 1 6.921156818122889 9.55448543354199 -0.12172650893231149 1 -1 2
3 1 9.793030524268447 10.575360306626132 -0.03673346591109054 2 -1 0
68 2 9.982950673446425 11.101909118865375 0.7961259892905576 2 -1 0
188 4 10.77632260746233 9.671974157886611 3.0217702173643484 2 0 0
147 2 8.291619350662396 9.42299214797785 3.2649537335200587 0 -1 -1
175 2 11.903365397044796 10.134538569606796 -0.06727842908348163 -2 -1 1
172 2 9.43142706367331 8.393314414205847 0.8585983761628408 1 0 2
4 1 1.5786246488247453 2.6621490767476854 4.952631774850971 1 -1 2
186 2 0.852748168852768 1.7120287511502814 6.101799882281336 2 -1 0
62 1 0.2521046134750708 1.5376926236589537 6.883758529045773 2 -1 0
70 2 2.2729069667065067 3.3143706507987307 5.060931084227333 1 -1 2
69 2 0.8411869061912093 3.239825485432623 5.096391220752525 1 -1 2
92 2 6.690603227787409 1.8694228232316694 5.238241838612572 0 1 1
15 1 5.894536317976557 1.6917050068251673 5.794531540769159 0 1 1
91 2 5.253806538172873 2.3066170347344754 5.28824596852635 0 1 1
102 2 5.9261683241799705 2.1822639959982975 7.430869471236894 -1 1 -2
18 1 8.56720505084591 2.366539587239733 4.781269403260168 -2 -2 -2
97 2 8.377377040765433 3.050768844244382 5.37987624421501 -2 -2 -2
98 2 9.51145583385398 2.317892465668285 4.812361593429885 -2 -2 -2
127 2 10.783083125843088 0.7007728834120418 4.279196423220235 -1 1 -1
185 2 11.768092160296135 1.8305731837873411 6.682290439487633 1 -1 0
84 2 8.818862813771995 1.190580576289762 7.918479244163181 -1 2 2
72 2 12.220466971627308 -0.07827657046391258 6.894159393711688 1 -1 1
1 1 2.6550292905789283 4.059886759415876 7.525899030537997 0 0 1
47 1 3.519735909576836 5.505340132043372 5.023247038347014 0 0 1
10 1 1.649535779876316 7.090675669000957 6.737313533727432 -1 -1 -1
81 2 2.1006779919629976 7.258801173245563 5.924129410518314 -1 -1 -1
82 2 1.1737203641300729 6.289651926286739 6.41758859211321 -1 -1 -1
64 2 1.934688788634708 4.67863288023145 7.7370442194368545 0 0 1
155 2 2.943910790804913 5.819599273899332 4.290950670373738 0 0 1
165 2 0.03331356333278199 5.554831032837319 4.961692639457118 0 -1 -1
63 2 3.3450240028493132 4.754840447570755 7.583194647811933 0 0 1
156 2 4.460189562129583 5.751190832014962 4.836109955825086 0 0 1
46 1 7.462453452865851 6.5734821546316144 7.597435147965315 -1 -2 0
135 2 5.891676394552268 5.582432782148508 8.027673367025034 0 2 0
153 2 7.927988559360492 7.049278699649146 6.874886127245643 -1 -2 0
52 1 12.199999930592636 4.752741052901967 5.51312267311216 -1 -1 -1
53 1 9.26338219853791 4.640173486609569 6.348900523643805 -1 -1 0
167 2 9.31950941101065 5.268084760553447 5.601355463150192 -1 -2 0
168 2 8.612592662682557 4.954682623875736 7.031045185034694 -1 -1 0
61 1 9.530650019740275 6.154696578915777 4.22741981670628 -1 0 1
184 2 9.784041582250442 6.923347486561977 4.645021467347407 -1 0 2
166 2 11.230397830261264 4.747559625947316 5.597785840761964 -1 -1 -1
145 2 10.702987418343545 7.841016349333427 6.30138026025805 -1 -2 0
131 2 11.09006147599882 4.02232475494801 8.116834647318102 0 -1 -1
36 1 2.9068977387460277 8.832083396963853 4.1116068894161 2 2 0
90 2 1.7384577649511432 8.901635440403265 7.830294897678753 -2 2 -2
149 2 2.437210115222831 10.399126652362979 6.751996821211525 0 0 0
44 1 3.227067234298775 9.86130836781974 6.613216747929258 -1 0 0
150 2 3.0128654526695873 9.412333615316415 5.724884314915668 -1 0 0
122 2 5.650414487220333 12.035186015617484 6.489112940184153 2 1 0
30 1 5.460145729709976 11.632830433281512 7.312152628420893 2 1 0
130 2 7.815620885692275 11.054068807749253 7.229350017255986 -2 0 2
121 2 4.70584152553521 11.045081993860698 7.125094728474442 2 1 0
42 1 10.183365230948954 8.555098475772251 5.830766333352205 -1 -3 0
5 1 11.65668886353014 11.497466438861155 6.655927447588112 1 -2 1
71 2 12.240874791484162 10.85976789625462 6.236546758324889 1 -2 1
34 1 8.166148987905574 11.554336747607396 8.05529083829341 -2 0 2
146 2 10.796529855438928 8.913209930312785 5.198671438311248 -1 -3 0
120 2 9.921989828723843 11.333170548527328 4.3784077700209645 -2 -1 -1
29 1 9.599698823865962 12.021378226350736 5.051241613138951 -2 -1 -1
119 2 10.066267727221419 11.759573493371002 5.9071213648640954 -2 -1 -1
96 2 10.990250819202183 9.945743848532754 8.052584330240924 -1 0 0
142 2 2.433393105976061 2.630982753788799 11.921412147791473 1 -1 1
40 1 3.0711991779142602 3.237923893267782 11.611977370738916 1 -1 1
141 2 3.1226749434207335 2.9024075999843615 10.690944534525665 1 -1 1
74 2 0.6053216794084438 0.24719573085164254 11.614299478744309 -1 3 -2
8 1 -0.0239673127775417 1.5044314021313934 9.808435057323285 2 -1 0
85 2 2.0258713862172386 1.9102543960102158 9.23934425207396 1 0 -1
12 1 3.0084384118546934 2.1220720436914835 9.19594593218172 1 0 -1
86 2 3.0481739295457726 2.8794246082434984 8.565939028405772 1 0 -1
78 2 -0.01321015337916056 1.7824379115346527 8.848859297073943 2 -1 0
187 3 4.731347098849564 0.487280089217735 9.146262862172698 1 2 0
101 2 5.542433917194951 3.264270308826349 8.502342759239808 -1 1 -2
20 1 6.005559306897922 2.4516784975685115 8.397622974907579 -1 1 -2
180 2 12.048778367775483 3.5183961766918754 10.81819519599557 1 2 -1
11 1 9.137172153685817 1.6904469350039697 8.775833052403303 -1 2 2
83 2 8.301641676009961 2.009470682506006 9.15303615684956 -1 2 2
140 2 9.665729306774313 2.5211447569786434 11.906774162734802 0 0 -1
39 1 9.318097349885717 3.142843671160668 11.235450335085691 0 0 -2
77 2 11.62629372298278 1.0084174696415222 10.000503047441358 1 -1 0
132 2 10.481095295948712 3.4733159765501793 9.337446490155958 0 -1 -1
144 2 9.604428222247456 0.40803265465712746 9.901904577983414 -1 3 0
59 1 -0.11940741182049802 4.028509401371552 11.569377478153328 2 2 -1
163 2 2.028931146906306 6.46299914684089 12.129077794226118 0 -1 -1
114 2 0.7753721200093876 6.725135255605544 10.365755005848282 -1 2 -1
26 1 -0.07309592294862688 7.2508806463045286 10.59407036778131 -1 2 -1
54 1 1.9198425465794575 5.823082230826429 10.51548750442385 -1 2 -2
169 2 1.7313047391660736 4.852173036538126 10.775994948561573 -1 2 -2
170 2 2.924205526830186 5.783332944269569 10.541917966729422 -1 2 -2
37 1 5.014713578551824 5.041285306968518 8.211910132361183 0 2 0
136 2 4.792523220544798 5.46949220976309 9.07939231019611 0 2 1
110 2 5.034409892840892 7.367831943850686 10.681698476825748 1 -1 1
24 1 4.726895308413553 6.495329215236475 10.502801730438918 1 -1 1
109 2 5.270853911199814 6.002678732613304 11.081939907574125 1 -1 1
154 2 7.981532855148511 6.614381822298959 8.337358881852696 -1 -2 0
179 2 11.43605717487766 4.420879912985217 11.762327439404418 1 2 -1
31 1 10.607519215081723 7.0311036661561 8.539019728130748 -1 0 -2
123 2 10.278083501435308 6.100517741877387 8.425726923131638 -1 0 -2
139 2 9.169826509765741 4.016274622640779 11.630583350253426 0 0 -2
35 1 11.109945302621878 4.17993160702536 9.122859918187947 0 -1 -1
113 2 12.069999565116134 6.798659378276154 11.460101496837636 -2 2 -1
124 2 11.259868283408537 7.0342605737428565 9.33892216840513 -1 0 -2
45 1 9.454493307294285 5.681289949936717 11.570931714102631 -1 -1 1
151 2 10.016862226660004 5.355936247815167 10.920505363738693 -1 -1 1
152 2 9.385822923001896 6.624507402349482 11.811450283531112 -1 -1 1
89 2 0.708148135519896 8.616172067402628 8.898352512827548 -2 2 -2
158 2 2.0757257827639615 12.096092723656147 8.904998682546578 -1 1 0
14 1 1.0261311060228975 9.277735550358045 8.352120427487595 -2 2 -2
117 2 2.6834584595372752 9.04671415955481 10.914495247072832 -1 -1 -1
157 2 2.408603456784996 10.719843682696805 8.743111188728083 -1 1 0
48 1 2.838988112740567 11.579842080424758 8.729918221081913 -1 1 0
28 1 3.5281483892356187 9.213625629246643 11.491791261737527 -1 -1 -1
176 2 0.4669150535228225 9.085722845798957 11.7645008538759 -1 -1 0
112 2 4.476639272276188 10.773472315917708 11.435979598764755 -1 0 2
25 1 4.7464634872744496 11.762094491384975 11.471549463179997 -1 0 1
161 2 5.241984512211359 10.293586364202305 9.528327524913998 -1 -1 0
50 1 6.071899602496427 9.773858020282931 9.553369934428781 -1 -1 0
162 2 6.761758193210806 10.378272215134368 9.136908580743404 -1 -1 0
87 2 6.652853584986887 9.606331062222868 11.362548787699156 1 -1 1
67 2 9.893563421351827 11.300989658720162 11.694393970742917 2 -1 -1
129 2 8.882687186668635 10.998209997563638 8.508840757139861 -2 1 2
95 2 10.069240282512009 9.120191345999581 8.985254823033003 -2 0 0
41 1 10.308374474091956 12.24311361127855 10.271994275770918 -1 2 0
143 2 10.360474995015748 11.449481726575845 9.731240582320655 -1 2 0
17 1 10.549982783104786 9.952929584476566 8.907062508540037 -1 0 0

Velocities

73 -6.796737035477024 15.234765230402713 -0.649093014323948
7 0.5445242495925895 -5.886425946257753 0.5084138728160157
75 -3.1078136615232657 -36.39452703549427 34.85274941046623
76 3.462440188272811 -19.784926107905477 32.32098154696779
6 -4.406577783646963 -4.320589767214312 2.924612293110726
38 -2.7741098245675238 5.327337531617181 -6.491777420960011
138 -13.231102926292422 30.019749443566752 -4.28727683173272
115 -7.085428515323458 -27.68016745936175 -13.154063486099236
27 4.132600442218371 -3.5366560552944377 -4.14254075512328
177 -0.11923634757173551 28.680980161946888 -3.633937602710091
94 4.676035356999015 -15.199190278404746 -13.244895807193668
58 -4.277231600270352 -4.808248541671152 -5.107784229075917
178 17.34565876818968 -42.0984404037312 27.470839915479306
16 13.010716523029416 10.057323161598994 -2.069811987035211
79 -24.778673085866604 -2.4816956331591564 -11.917963984757117
100 -4.4190759150918275 31.48731219778564 27.348659076175522
19 -0.27665448739474363 -0.44646872759400924 -7.667929274891641
99 4.150005496531877 -0.7973522302825979 10.304007821366508
128 -3.2838212450872883 7.9773998229491125 -36.14602792885553
66 7.663185813616756 -15.916523316457065 -3.5806680928120436
33 2.3434212136538792 2.061526437661461 -8.154324520234924
105 -0.7036267637091153 1.5876659208829824 23.986820204792817
164 1.5199738437998698 -6.797794192555961 -18.203880170479664
51 2.5449122158154847 0.2066818109892261 4.252211865353656
125 1.0915942533854979 0.942518193366726 -23.70587193126062
32 0.10216135309091 -9.405078898690993 2.7846403599153104
126 -17.451000657168798 10.071083921788368 7.173355663302505
137 6.002646905885641 12.860274217462212 16.152561150791257
160 24.706414481954617 5.385977720430863 5.5195752311419
9 -2.5008194859920057 -7.04875644599488 7.123020881841405
182 -13.108526692571647 -25.988183504407328 -2.2789177521095576
60 -8.66153025344168 1.0856009317676794 9.495133838779735
80 -31.83026145130429 -2.954174121611345 16.951292931227616
181 4.993960134958653 -8.309681568451103 25.737991524202748
49 -10.03359524142668 -8.831630585152563 -3.39438385697736
159 23.788213646658196 -16.484062470774028 -2.1339006783168437
171 -15.826131687523322 -11.677807907955742 -6.546944722771581
22 -1.4962296666351558 -0.14715740004044642 2.480842193068117
106 -5.314338319910891 13.911752460436569 -10.162805978793758
2 5.706938434249397 -6.660629899425239 0.9671012700268827
65 -24.995374566335745 -34.34897805792714 -0.6664465944812197
183 12.201922967332631 10.61429436378818 -13.150286509255668
55 1.9690664851134065 0.749901621830579 5.742000338005935
174 -34.64846235753562 -35.99065635462706 29.016342818830235
133 -12.293845816025726 -11.052744727069992 25.614480059986622
173 30.161003434888652 -18.30098421643529 7.66040253951245
56 9.77881804601009 -0.8699680544268161 -2.100465177556246
134 13.254350053530269 -35.798521360588985 17.868983482480555
108 43.3067746955908 34.242113459029234 -10.206393693448492
23 1.3148557247366055 1.371512723629495 5.446090222081964
107 2.6176304377510116 -11.118444833758033 -27.198961970419074
118 7.087610571114988 3.96890795149069 -28.033296686978836
57 2.823401413287009 -2.6114924664762693 10.818259501144807
116 -2.9179435151943887 14.326552940538257 23.101781953699884
111 -2.0905083262443718 -18.094020680026652 5.52416846775275
93 -12.48787355469698 -2.5061052601808895 21.276488557187385
103 6.244697100044357 -12.561310974409515 -27.797896011152233
21 -5.431006925177568 -10.065740359478223 3.7598515561624923
104 -26.766507581047282 3.007687331917161 20.95720616500982
148 -28.666054924007554 4.7846534870997575 6.608060018884946
43 -2.8876850647904586 -3.91860094586451 -6.151279050491883
88 -26.424133948300092 28.735680081207708 28.476325936596083
13 5.761215738161179 2.20169366960989 -0.7486774466538534
3 -5.21365712258779 3.1568681939614387 -3.7152633002733455
68 -15.252442192581803 -46.227457138979716 -34.81197060618315
188 -7.458692018824173 2.364168191509669 -5.899988610757614
147 -1.0823583335702858 4.940695701845409 7.9947553901569135
175 11.460850889777614 -22.673712386171744 -26.949056409107616
172 22.39520873795065 -23.817547801876458 4.091776961945679
4 5.989002034762887 7.1811825611302735 -1.8832552412989676
186 1.876291178024828 -32.60373093944536 25.34302995652605
62 -0.8359851220292486 -2.5310332088372 6.172764181089751
70 8.762465144939766 23.230943151881082 0.6174818379802253
69 1.0006494927005454 -5.34543762456222 -6.829854906753586
92 35.53661177962607 9.140897995566961 12.686831903158721
15 -0.40239783800348194 5.566459060792914 -2.2720131300964983
91 26.291991111170628 8.778267929284752 -18.42995628127378
102 -22.60611116420613 33.71008821281329 -8.314055623409152
18 2.734411551226544 -2.4272964608855276 0.13552356836541635
97 2.3285949476796093 9.855553870141971 -50.13268081888588
98 -7.3117783471487865 20.587333870303407 -9.956774711605563
127 -22.876727250585994 17.618039562086697 -9.924176629542306
185 2.486299328248876 -12.065347218815162 19.550998342933408
84 33.22319707159169 12.54513513874263 -7.195791929269044
72 30.702691114667015 15.585322447831091 7.037172961054438
1 -3.70093874925276 -1.9252676225879386 -0.6795088130108603
47 1.9441880561831861 2.0159196070737293 4.637080689439509
10 -2.941759425390078 7.214627017633598 4.296440456177297
81 23.42817453541396 10.46560570459303 0.5829870333981619
82 -1.1461827244422138 -14.188907571976797 -0.7451162935043264
64 16.472623203057502 -9.80451695485772 -1.6450362642692455
155 -25.634889800312415 11.499486016101697 -48.045452448893535
165 22.999339598421457 53.45651619168421 10.328186336264878
63 -16.118789019143293 -13.60505089283194 -1.4296918499631022
156 10.203280396201313 -26.299344296363714 51.472132073319486
46 0.2072812659343023 -8.215327437987783 -7.273786163387587
135 5.890984945538957 14.93296813042884 15.924738916291014
153 3.0619897604947655 15.783205999899332 -23.395794488280547
52 6.806086616047807 -1.581845683952206 3.554770042955203
53 0.3355231853444846 -2.324383314334093 -5.6174395074739545
167 -2.1091563970681175 -53.26385881617661 29.15604561496545
168 -1.970848237819305 28.48230064897336 15.701498170692599
61 1.243921597689501 1.3529547155761334 -4.969220271826077
184 26.66264978826216 25.770189142723602 -7.840872625324238
166 -19.726190249174525 -15.504994865010996 16.495342583316535
145 6.125670470437389 -18.66277591283574 -9.153221769973785
131 -15.159764574616489 -12.052179083603813 -7.328918068128642
36 0.7871663721940629 5.777783437771258 -0.9226351703159692
90 16.22573596772615 7.37809849777287 28.6035402911995
149 -23.448269103978923 -0.758501429742514 -14.689294326936073
44 1.1808860845799367 -6.320957414938403 -0.20226650950309832
150 -10.862496205242396 36.64629861938605 -12.076502566035824
122 -23.24742534293726 10.148513820202904 7.314513081685442
30 0.5342060591281617 -4.20182164337438 4.917893840566218
130 -13.56124115808654 16.687242735533236 -8.82548137046157
121 26.259597873021395 -31.234747520089535 26.72011092007452
42 0.47473219551844054 5.691953316670405 11.91163428296086
5 -3.3573233963731313 7.029638613877201 -0.602032491135666
71 13.498852493593342 28.302530316213527 -13.302872073509915
34 2.790162002180341 3.4855614573473814 -1.387128457266612
146 22.64902667955339 -25.848470963436444 -2.636247649286197
120 47.972766262789655 -11.669172270505351 -10.279504259792672
29 -4.400339907528636 3.0067000911686304 6.870230143112993
119 5.272334339083153 9.033255122230267 9.537794827390822
96 -22.616613378225328 5.502791190496424 13.029113347829966
142 15.979836369998237 -3.332579237077745 -13.10471682234736
40 1.047368511770656 -0.9350344216894797 -4.232776849329911
141 -14.699794851461691 -16.194835962418477 8.615753421632903
74 -19.88713518154378 -3.525649112581459 -3.4503293279178164
8 -5.911482487667726 -7.430711279165799 3.398652052251365
85 20.097277524600987 -8.954489529028434 -4.785656905698163
12 6.957076670705417 6.374819993137832 -7.703868058434616
86 -3.5100685795659934 -25.387692085177253 -41.640695885809684
78 22.79622162775557 10.66951978414338 9.53317390049352
187 -1.611056012400308 5.134094086396271 -1.9251933652921023
101 -9.965358875517815 -4.471776106134619 -1.8582791490481114
20 13.864872776672204 8.47175697408507 -4.386394507802577
180 3.6268907744377237 -10.433424165596604 7.864932174318173
11 -3.5293525243985524 4.573745419885862 -3.7953849815575302
83 10.40129644796633 -3.8415727297117557 -8.085256781276083
140 -22.273874619665847 16.63519665532719 44.88595628573441
39 4.031750409897365 -2.459175447851592 8.74061563930873
77 -6.747128376064746 -2.9763055936170884 32.34088719333963
132 -37.58189485299689 5.782312503766227 -4.762686297591097
144 -39.588745878623484 5.524498351103582 18.351042427969436
59 -2.6245043336505947 6.3859741596826245 -3.3276403855435484
163 15.894021699961504 -16.92499337118483 14.5808941622186
114 25.229567063911702 16.851522081187646 31.276934431080416
26 5.578406648945995 -1.2014666936820961 -5.117411545191529
54 0.0643749523408253 2.5566035656674715 -3.1822108221933543
169 -28.480005872837832 1.5739416429191577 22.586140465373518
170 20.23698033744193 -20.479793902423392 7.759245616032763
37 -5.653801295523557 -5.823036234626973 -10.702378127181115
136 -0.17549226561974765 33.928008864705596 -29.401183477665608
110 16.73654628112669 19.20791641513568 0.7416443344713721
24 0.625090103113169 -1.4382372533277588 2.044775134176669
109 14.207974614603774 -5.03730622754702 11.501975966851415
154 -15.408071880178571 -1.9387012365084741 -60.98521405811379
179 13.868722706707956 15.149087820821961 9.76923773249112
31 -14.49994549656049 -6.63987882723563 -3.7376217990984446
123 -4.1247309422724685 9.661602698562715 -17.59040685740483
139 -1.552712439954358 31.220951629859556 -11.986159077958067
35 -7.517120870056178 13.746138248342028 -2.7078480754756407
113 1.5733085875248871 -15.705528701976528 -11.61805188667282
124 -12.199941099420231 9.212229655831576 10.39221446922397
45 1.5881460827576854 -0.7163892695071381 0.9711540471258564
151 1.1636126410082448 -6.888336047071324 -5.526023866786762
152 -1.9002075021899114 11.211448519361014 53.65996000283483
89 -34.704940151917555 -10.725586900273015 18.59899156175554
158 -11.343699065272741 -35.908390117602494 -20.0383767068974
14 7.630194431930165 -2.438635617828019 -0.5060118879682642
117 -42.45223393439136 -19.441068920901365 -11.863490410306058
157 23.589127745437498 -36.472355158871956 11.010364330919462
48 -0.29635408059485946 6.635388511364833 6.3199088216702615
28 3.178298834994238 -3.171383016472649 9.005902502867597
176 32.678758257256796 -4.340926426095305 23.69125467378861
112 -3.8818448751752856 9.457276331362944 15.024664040125087
25 3.6926769627378846 0.4494538730486003 -2.746235062431134
161 23.030487224074772 -27.60923589540684 -22.037698223899564
50 0.1569858848269032 -1.0120589938711186 1.1050858413128575
162 -3.3186388722676092 -17.467330693747698 -33.27333570079695
87 19.974826896874923 6.022378190495886 -7.047534267134797
67 2.0491581926184166 23.936152661233535 -20.465464666856256
129 -20.161756711489527 -3.78051828374268 -7.023949680787894
95 14.708622316645442 -9.144522348797276 3.7462902962148
41 -4.077993355772329 3.684776970235334 7.644304835798053
143 -4.4318462202284055 7.503621045660167 -9.638118554161409
17 0.9681041486064977 2.4966766669479283 -3.0092430018251974
